------------------------------------------------------------
          Invoking FHI-aims ...

          When using FHI-aims, please cite the following reference:

            Volker Blum, Ralf Gehrke, Felix Hanke, Paula Havu,
            Ville Havu, Xinguo Ren, Karsten Reuter, and Matthias Scheffler,
            'Ab Initio Molecular Simulations with Numeric Atom-Centered Orbitals',
            Computer Physics Communications 180, 2175-2196 (2009)

          In addition, many other developments in FHI-aims are likely important for
          your particular application. If so, please cite them. A partial list of references
          is written at the end of this file. Thank you for giving credit to the authors
          of these developments.

          For general information about FHI-aims please find us at

            https://fhi-aims.org

          Online tutorials can be found at

            https://fhi-aims-club.gitlab.io/tutorials/tutorials-overview/

          For any questions about FHI-aims, please visit our slack channel at

            https://fhi-aims.slack.com

          and our main development and support site at

            https://aims-git.rz-berlin.mpg.de .

          The latter site, in particular, has a wiki to collect information, as well
          as an issue tracker to log discussions, suggest improvements, and report issues
          or bugs. https://aims-git.rz-berlin.mpg.de is also the main development site
          of the project and all new and updated code versions can be obtained there.
          Please send an email to aims-coordinators@fhi-berlin.mpg.de and we will add
          you to these sites. They are for you and everyone is welcome there.

------------------------------------------------------------



  Date     :  20240806, Time     :  202733.523
  Time zero on CPU 1             :   0.268641000000000E+00  s.
  Internal wall clock time zero  :           492208053.523  s.

  FHI-aims created a unique identifier for this run for later identification
  aims_uuid : 478C9FE4-97A8-4672-A3A0-EFE95DD61EDA

  Build configuration of the current instance of FHI-aims
  -------------------------------------------------------
  FHI-aims version      : 231212.1
  Commit number         : GITDIR-NOTFOUND
  CMake host system     : Linux-5.14.21-150500.55.52-default
  CMake version         : 3.20.4
  Fortran compiler      : /mpcdf/soft/SLE_15/packages/x86_64/intel_oneapi/2021.4/mpi/2021.4.0/bin/mpiifort (Intel) version 2021.4.0.20210910
  Fortran compiler flags: -O3 -fp-model precise -xCORE-AVX512 -qopt-zmm-usage=high
  C compiler            : /mpcdf/soft/SLE_15/packages/x86_64/intel_oneapi/2021.4/mpi/2021.4.0/bin/mpiicc (Intel) version 2021.4.0.20210910
  C compiler flags      : -O3 -ip -fp-model precise -std=gnu99 -xCORE-AVX512 -qopt-zmm-usage=high -no-multibyte-chars
  C++ compiler          : /mpcdf/soft/SLE_15/packages/x86_64/intel_oneapi/2021.4/mpi/2021.4.0/bin/mpiicpc (Intel) version 2021.4.0.20210910
  C++ compiler flags    : -O3 -fp-model precise -xCORE-AVX512 -qopt-zmm-usage=high
  HIP compiler          :
  HIP compiler flags    :
  HIP GPU arch          :
  Using MPI
  Using ScaLAPACK
  Using LibXC
  Using i-PI
  Using RLSY
  Linking against: /mpcdf/soft/SLE_15/packages/x86_64/intel_oneapi/2021.4/mkl/latest/lib/intel64/libmkl_intel_lp64.so
                   /mpcdf/soft/SLE_15/packages/x86_64/intel_oneapi/2021.4/mkl/latest/lib/intel64/libmkl_sequential.so
                   /mpcdf/soft/SLE_15/packages/x86_64/intel_oneapi/2021.4/mkl/latest/lib/intel64/libmkl_core.so
                   /mpcdf/soft/SLE_15/packages/x86_64/intel_oneapi/2021.4/mkl/latest/lib/intel64/libmkl_blacs_intelmpi_lp64.so
                   /mpcdf/soft/SLE_15/packages/x86_64/intel_oneapi/2021.4/mkl/latest/lib/intel64/libmkl_scalapack_lp64.so

  Using        8 parallel tasks.
  Task        0 on host ravc2127 reporting.
  Task        1 on host ravc2127 reporting.
  Task        2 on host ravc2127 reporting.
  Task        3 on host ravc2127 reporting.
  Task        4 on host ravc2127 reporting.
  Task        5 on host ravc2127 reporting.
  Task        6 on host ravc2127 reporting.
  Task        7 on host ravc2127 reporting.

  Memory overcommitment is allowed on your operating system.

  Obtaining array dimensions for all initial allocations:
  
  -----------------------------------------------------------------------
  Parsing control.in (first pass over file, find array dimensions only).
  The contents of control.in will be repeated verbatim below
  unless switched off by setting 'verbatim_writeout .false.' .
  in the first line of control.in .
  -----------------------------------------------------------------------
  
  #===============================================================================
  # FHI-aims file: ./control.in
  # Created using the Atomic Simulation Environment (ASE)
  # Tue Aug  6 20:03:49 2024
  #===============================================================================
  output                             hirshfeld
  output                             hartree_multipoles
  xc                                 pbe0
  relativistic                       atomic_zora scalar
  compute_forces                     .true.
  override_illconditioning           .true.
  #===============================================================================
  
  ################################################################################
  #
  #  FHI-aims code project
  #  Volker Blum, Fritz Haber Institute Berlin, 2009
  #
  #  Suggested "tight" defaults for O atom (to be pasted into control.in file)
  #
  ################################################################################
    species        O
  #     global species definitions
      nucleus             8
      mass                15.9994
  #
      l_hartree           6
  #
      cut_pot             4.0  2.0  1.0
      basis_dep_cutoff    1e-4
  #
      radial_base         36 7.0
      radial_multiplier   2
       angular_grids specified
        division   0.1817   50
        division   0.3417  110
        division   0.4949  194
        division   0.6251  302
        division   0.8014  434
  #      division   0.8507  590
  #      division   0.8762  770
  #      division   0.9023  974
  #      division   1.2339 1202
  #      outer_grid 974
        outer_grid  434
  ################################################################################
  #
  #  Definition of "minimal" basis
  #
  ################################################################################
  #     valence basis states
      valence      2  s   2.
      valence      2  p   4.
  #     ion occupancy
      ion_occ      2  s   1.
      ion_occ      2  p   3.
  ################################################################################
  #
  #  Suggested additional basis functions. For production calculations,
  #  uncomment them one after another (the most important basis functions are
  #  listed first).
  #
  #  Constructed for dimers: 1.0 A, 1.208 A, 1.5 A, 2.0 A, 3.0 A
  #
  ################################################################################
  #  "First tier" - improvements: -699.05 meV to -159.38 meV
       hydro 2 p 1.8
       hydro 3 d 7.6
       hydro 3 s 6.4
  #  "Second tier" - improvements: -49.91 meV to -5.39 meV
       hydro 4 f 11.6
       hydro 3 p 6.2
       hydro 3 d 5.6
       hydro 5 g 17.6
       hydro 1 s 0.75
  #  "Third tier" - improvements: -2.83 meV to -0.50 meV
  #     ionic 2 p auto
  #     hydro 4 f 10.8
  #     hydro 4 d 4.7
  #     hydro 2 s 6.8
  #  "Fourth tier" - improvements: -0.40 meV to -0.12 meV
  #     hydro 3 p 5
  #     hydro 3 s 3.3
  #     hydro 5 g 15.6
  #     hydro 4 f 17.6
  #     hydro 4 d 14
  # Further basis functions - -0.08 meV and below
  #     hydro 3 s 2.1
  #     hydro 4 d 11.6
  #     hydro 3 p 16
  #     hydro 2 s 17.2
  ################################################################################
  #
  # For methods that use the localized form of the "resolution of identity" for
  # the two-electron Coulomb operator (RI_method LVL), particularly Hartree-Fock and
  # hybrid density functional calculations, the highest accuracy can be obtained by
  # uncommenting the line beginning with "for_aux"  below, thus adding an extra g radial
  # function to the construction of the product basis set for the expansion.
  # See Ref. New J. Phys. 17, 093020 (2015) for more information, particularly Figs. 1 and 6.
  #
  ################################################################################
  #
  # for_aux hydro 5 g 6.0
  ################################################################################
  #
  #  FHI-aims code project
  #  Volker Blum, Fritz Haber Institute Berlin, 2009
  #
  #  Suggested "tight" defaults for H atom (to be pasted into control.in file)
  #
  ################################################################################
    species        H
  #     global species definitions
      nucleus             1
      mass                1.00794
  #
      l_hartree           6
  #
      cut_pot             4.0  2.0  1.0
      basis_dep_cutoff    1e-4
  #
      radial_base         24 7.0
      radial_multiplier   2
      angular_grids       specified
        division   0.1930   50
        division   0.3175  110
        division   0.4293  194
        division   0.5066  302
        division   0.5626  434
  #      division   0.5922  590
  #      division   0.6227  974
  #      division   0.6868 1202
  #      outer_grid  770
        outer_grid  434
  ################################################################################
  #
  #  Definition of "minimal" basis
  #
  ################################################################################
  #     valence basis states
      valence      1  s   1.
  #     ion occupancy
      ion_occ      1  s   0.5
  ################################################################################
  #
  #  Suggested additional basis functions. For production calculations,
  #  uncomment them one after another (the most important basis functions are
  #  listed first).
  #
  #  Basis constructed for dimers: 0.5 A, 0.7 A, 1.0 A, 1.5 A, 2.5 A
  #
  ################################################################################
  #  "First tier" - improvements: -1014.90 meV to -62.69 meV
       hydro 2 s 2.1
       hydro 2 p 3.5
  #  "Second tier" - improvements: -12.89 meV to -1.83 meV
       hydro 1 s 0.85
       hydro 2 p 3.7
       hydro 2 s 1.2
       hydro 3 d 7
  #  "Third tier" - improvements: -0.25 meV to -0.12 meV
  #     hydro 4 f 11.2
  #     hydro 3 p 4.8
  #     hydro 4 d 9
  #     hydro 3 s 3.2
  ################################################################################
  #
  # For methods that use the localized form of the "resolution of identity" for
  # the two-electron Coulomb operator (RI_method LVL), particularly Hartree-Fock and
  # hybrid density functional calculations, the highest accuracy can be obtained by
  # uncommenting the line beginning with "for_aux"  below, thus adding an extra g radial
  # function to the construction of the product basis set for the expansion.
  # See Ref. New J. Phys. 17, 093020 (2015) for more information, particularly Figs. 1 and 6.
  #
  ################################################################################
  #
  # for_aux hydro 5 g 6.0
  
  -----------------------------------------------------------------------
  Completed first pass over input file control.in .
  -----------------------------------------------------------------------
  
  
  -----------------------------------------------------------------------
  Parsing geometry.in (first pass over file, find array dimensions only).
  The contents of geometry.in will be repeated verbatim below
  unless switched off by setting 'verbatim_writeout .false.' .
  in the first line of geometry.in .
  -----------------------------------------------------------------------
  
  #=======================================================
  # FHI-aims file: ./geometry.in
  # Created using the Atomic Simulation Environment (ASE)
  # Tue Aug  6 20:03:49 2024
  #=======================================================
  atom -0.8251137800000000 -2.2545035300000000 -0.7053756799999999 O
  atom -1.3742813800000000 -1.8336429999999999 -0.0224465800000000 H
  atom -1.0657219800000000 -3.1772497700000000 -0.7245387800000000 H
  atom 1.6688781200000000 0.6148333200000000 -2.4245566799999998 O
  atom 1.8466239200000001 0.1806006000000000 -1.5802096800000001 H
  atom 0.9880080200000000 0.0693332800000000 -2.8454398799999998 H
  atom -2.1247066800000001 -0.7791072500000000 1.2044201200000000 O
  atom -1.6656116800000000 0.0357670400000000 0.9489164200000000 H
  atom -2.0238956799999999 -0.8282262500000001 2.1543550499999999 H
  atom -0.1518768800000000 1.0369894099999999 3.3306188600000000 O
  atom -0.3289856800000000 1.8160497700000000 3.8518900899999999 H
  atom -0.2493385800000000 1.3070439899999999 2.4026842099999999 H
  atom -0.4668507800000000 2.2828180400000000 -2.0057735800000001 O
  atom 0.3789420200000000 1.8325421399999999 -2.1815204800000001 H
  atom -0.5070461800000000 3.0253245400000002 -2.6022185800000002 H
  atom 1.4415698200000000 -0.7224220400000000 0.0836773200000000 O
  atom 0.7819648200000000 -1.3710566000000000 -0.1959619800000000 H
  atom 1.6468272200000000 -0.9058521200000000 1.0114269199999999 H
  atom -0.3903564800000000 1.3302135100000001 0.5923490200000000 O
  atom -0.5293011800000000 1.8119365800000000 -0.2320928800000000 H
  atom 0.3046756200000000 0.6795050700000000 0.4084377200000000 H
  atom 1.6952376199999999 -0.9930235500000000 2.8315391600000002 O
  atom 1.0797916200000000 -0.3045168300000000 3.1289730100000002 H
  atom 2.3623614200000000 -1.0628097500000000 3.5100808200000002 H
  atom -0.8247246800000000 -0.5439749200000000 -3.0354222800000001 O
  atom -1.0850719799999999 0.3219477700000000 -2.7045526799999999 H
  atom -0.9100174800000000 -1.1494704899999999 -2.2878513800000002 H
  
  -----------------------------------------------------------------------
  Completed first pass over input file geometry.in .
  -----------------------------------------------------------------------
  

  Basic array size parameters:
  | Number of species                 :        2
  | Number of atoms                   :       27
  | Max. basis fn. angular momentum   :        4
  | Max. atomic/ionic basis occupied n:        2
  | Max. number of basis fn. types    :        2
  | Max. radial fns per species/type  :        8
  | Max. logarithmic grid size        :     1301
  | Max. radial integration grid size :       73
  | Max. angular integration grid size:      434
  | Max. angular grid division number :        8
  | Radial grid for Hartree potential :     1301
  | Number of spin channels           :        1

------------------------------------------------------------
          Reading file control.in.
------------------------------------------------------------
  Hirshfeld charge analysis will be performed.
  All multipole moments of the Hartree potential will be written out.
  XC: Using hybrid-PBE0 functionals.
  Scalar relativistic treatment of kinetic energy: on-site free-atom approximation to ZORA.
  Forces will be computed.
  override_illconditioning: Explicitly overriding any built-in checks for an ill-conditioned overlap matrix.
  *** WARNING: If you use this flag, you should really know what you are doing.
  *** DO NOT keep this flag set by default in all your control.in files.
 
  Reading configuration options for species O                   .
  | Found nuclear charge :   8.0000
  | Found atomic mass :    15.9994000000000      amu
  | Found l_max for Hartree potential  :   6
  | Found cutoff potl. onset [A], width [A], scale factor :    4.00000    2.00000    1.00000
  | Threshold for basis-dependent cutoff potential is   0.100000E-03
  | Found data for basic radial integration grid :    36 points, outermost radius =    7.000 A
  | Found multiplier for basic radial grid :   2
  | Found angular grid specification: user-specified.
  | Specified grid contains     6 separate shells.
  | Check grid settings after all constraints further below.
  | Found free-atom valence shell :  2 s   2.000
  | Found free-atom valence shell :  2 p   4.000
  | No ionic wave fns used. Skipping ion_occ.
  | No ionic wave fns used. Skipping ion_occ.
  | Found hydrogenic basis function :  2 p   1.800
  | Found hydrogenic basis function :  3 d   7.600
  | Found hydrogenic basis function :  3 s   6.400
  | Found hydrogenic basis function :  4 f  11.600
  | Found hydrogenic basis function :  3 p   6.200
  | Found hydrogenic basis function :  3 d   5.600
  | Found hydrogenic basis function :  5 g  17.600
  | Found hydrogenic basis function :  1 s   0.750
 | Encountered keyword species, ending the description of species O                   .
  Species O                   : Missing cutoff potential type.
  Defaulting to exp(1/x)/(1-x)^2 type cutoff potential.
  Species O : No 'logarithmic' tag. Using default grid for free atom:
  | Default logarithmic grid data [bohr] : 0.1000E-03 0.1000E+03 0.1012E+01
  Species O : On-site basis accuracy parameter (for Gram-Schmidt orthonormalisation) not specified.
  Using default value basis_acc =  0.1000000E-03.
  Species O                   : Using default innermost maximum threshold i_radial=  2 for radial functions.
  Species O                   : Default cutoff onset for free atom density etc. : 0.40000000E+01 AA.
  Species O                   : Basic radial grid will be enhanced according to radial_multiplier =   2, to contain    73 grid points.
 
  Reading configuration options for species H                   .
  | Found nuclear charge :   1.0000
  | Found atomic mass :    1.00794000000000      amu
  | Found l_max for Hartree potential  :   6
  | Found cutoff potl. onset [A], width [A], scale factor :    4.00000    2.00000    1.00000
  | Threshold for basis-dependent cutoff potential is   0.100000E-03
  | Found data for basic radial integration grid :    24 points, outermost radius =    7.000 A
  | Found multiplier for basic radial grid :   2
  | Found angular grid specification: user-specified.
  | Specified grid contains     6 separate shells.
  | Check grid settings after all constraints further below.
  | Found free-atom valence shell :  1 s   1.000
  | No ionic wave fns used. Skipping ion_occ.
  | Found hydrogenic basis function :  2 s   2.100
  | Found hydrogenic basis function :  2 p   3.500
  | Found hydrogenic basis function :  1 s   0.850
  | Found hydrogenic basis function :  2 p   3.700
  | Found hydrogenic basis function :  2 s   1.200
  | Found hydrogenic basis function :  3 d   7.000
  Species H                   : Missing cutoff potential type.
  Defaulting to exp(1/x)/(1-x)^2 type cutoff potential.
  Species H : No 'logarithmic' tag. Using default grid for free atom:
  | Default logarithmic grid data [bohr] : 0.1000E-03 0.1000E+03 0.1012E+01
  Species H : On-site basis accuracy parameter (for Gram-Schmidt orthonormalisation) not specified.
  Using default value basis_acc =  0.1000000E-03.
  Species H                   : Using default innermost maximum threshold i_radial=  2 for radial functions.
  Species H                   : Default cutoff onset for free atom density etc. : 0.40000000E+01 AA.
  Species H                   : Basic radial grid will be enhanced according to radial_multiplier =   2, to contain    49 grid points.
 
  Finished reading input file 'control.in'.
 
------------------------------------------------------------


------------------------------------------------------------
          Reading geometry description geometry.in.
------------------------------------------------------------
  | The smallest distance between any two atoms is         0.95324614 AA.
  | The first atom of this pair is atom number                     13 .
  | The second atom of this pair is atom number                    15 .
  Input structure read successfully.
  The structure contains       27 atoms,  and a total of         90.000 electrons.

  Input geometry:
  | No unit cell requested.
  | Atomic structure:
  |       Atom                x [A]            y [A]            z [A]
  |    1: Species O            -0.82511378       -2.25450353       -0.70537568
  |    2: Species H            -1.37428138       -1.83364300       -0.02244658
  |    3: Species H            -1.06572198       -3.17724977       -0.72453878
  |    4: Species O             1.66887812        0.61483332       -2.42455668
  |    5: Species H             1.84662392        0.18060060       -1.58020968
  |    6: Species H             0.98800802        0.06933328       -2.84543988
  |    7: Species O            -2.12470668       -0.77910725        1.20442012
  |    8: Species H            -1.66561168        0.03576704        0.94891642
  |    9: Species H            -2.02389568       -0.82822625        2.15435505
  |   10: Species O            -0.15187688        1.03698941        3.33061886
  |   11: Species H            -0.32898568        1.81604977        3.85189009
  |   12: Species H            -0.24933858        1.30704399        2.40268421
  |   13: Species O            -0.46685078        2.28281804       -2.00577358
  |   14: Species H             0.37894202        1.83254214       -2.18152048
  |   15: Species H            -0.50704618        3.02532454       -2.60221858
  |   16: Species O             1.44156982       -0.72242204        0.08367732
  |   17: Species H             0.78196482       -1.37105660       -0.19596198
  |   18: Species H             1.64682722       -0.90585212        1.01142692
  |   19: Species O            -0.39035648        1.33021351        0.59234902
  |   20: Species H            -0.52930118        1.81193658       -0.23209288
  |   21: Species H             0.30467562        0.67950507        0.40843772
  |   22: Species O             1.69523762       -0.99302355        2.83153916
  |   23: Species H             1.07979162       -0.30451683        3.12897301
  |   24: Species H             2.36236142       -1.06280975        3.51008082
  |   25: Species O            -0.82472468       -0.54397492       -3.03542228
  |   26: Species H            -1.08507198        0.32194777       -2.70455268
  |   27: Species H            -0.91001748       -1.14947049       -2.28785138

  Slab Identifier: This is not a periodic structure.
 
  Finished reading input file 'geometry.in'.
 

 
  Consistency checks for stacksize environment parameter are next.
 
  | Maximum stacksize for task 0: unlimited
  | Maximum stacksize for task 1: unlimited
  | Maximum stacksize for task 2: unlimited
  | Maximum stacksize for task 3: unlimited
  | Maximum stacksize for task 4: unlimited
  | Maximum stacksize for task 5: unlimited
  | Maximum stacksize for task 6: unlimited
  | Maximum stacksize for task 7: unlimited
  | Current stacksize for task 0: unlimited
  | Current stacksize for task 1: unlimited
  | Current stacksize for task 2: unlimited
  | Current stacksize for task 3: unlimited
  | Current stacksize for task 4: unlimited
  | Current stacksize for task 5: unlimited
  | Current stacksize for task 6: unlimited
  | Current stacksize for task 7: unlimited
 
  Consistency checks for the contents of control.in are next.
 
  MPI_IN_PLACE appears to work with this MPI implementation.
  | Keeping use_mpi_in_place .true. (see manual).
  Explicit treatment of the Coulomb operator is needed, but the RI method is not specified.
  Coulomb operator: Defaulting to 'LVL fast' resolution of identity - RI_type = LVL_fast
  Species O: Using default value for prodbas_acc =   1.000000E-04.
  Species O: Using default value max_l_prodbas =    20.
  Species H: Using default value for prodbas_acc =   1.000000E-04.
  Species H: Using default value max_l_prodbas =    20.
  Target number of points in a grid batch is not set. Defaulting to  100
  Method for grid partitioning is not set. Defaulting to parallel hash+maxmin partitioning.
  Batch size limit is not set. Defaulting to    200
  By default, will store active basis functions for each batch.
  If in need of memory, prune_basis_once .false. can be used to disable this option.
  communication_type for Hartree potential was not specified.
  Defaulting to calc_hartree .
  Defaulting to Pulay charge density mixer.
  Pulay mixer: Number of relevant iterations not set.
  Defaulting to    8 iterations.
  Pulay mixer: Number of initial linear mixing iterations not set.
  Defaulting to    0 iterations.
  Work space size for distributed Hartree potential not set.
  Defaulting to   0.200000E+03 MB.
  Mixing parameter for charge density mixing has not been set.
  Using default: charge_mix_param =     0.0500.
  The mixing parameter will be adjusted in iteration number     2 of the first full s.c.f. cycle only.
  Algorithm-dependent basis array size parameters:
  | n_max_pulay                         :        8
  Maximum number of self-consistency iterations not provided.
  Presetting  1000 iterations.
  Presetting      1001 iterations before the initial mixing cycle
  is restarted anyway using the sc_init_iter criterion / keyword.
  Presetting a factor      1.000 between actual scf density residual
  and density convergence criterion sc_accuracy_rho below which sc_init_iter
  takes no effect.
 * No s.c.f. convergence criteria (sc_accuracy_*) were provided in control.in.
 * The run will proceed with a reasonable default guess, but please check whether.
 * the s.c.f. cycles seem to take too much or too little time.
  Geometry relaxation not requested: no relaxation will be performed.
  Forces evaluation will include force correction term due to incomplete self-consistency (default).
 * Notice: The s.c.f. convergence criterion sc_accuracy_rho was not provided.
 * We used to stop in this case, and ask the user to provide reasonable
 * scf convergence criteria. However, this led some users to employ criteria
 * that led to extremely long run times, e.g., for simple relaxation.
 * We now preset a default value for sc_accuracy_rho if it is not set.
 * You may still wish to check if this setting is too tight or too loose for your needs.
 * Based on n_atoms and forces and force-correction status, FHI-aims chose sc_accuracy_rho =  0.212132E-05 .
  Force calculation: scf convergence accuracy of forces not set.
  Defaulting to 'sc_accuracy_forces not_checked'.
  Handling of forces: Unphysical translation and rotation will be removed from forces.
  No accuracy limit for integral partition fn. given. Defaulting to  0.1000E-14.
  No threshold value for u(r) in integrations given. Defaulting to  0.1000E-05.
  No occupation type (smearing scheme) given. Defaulting to Gaussian broadening, width =  0.1000E-01 eV.
  The width will be adjusted in iteration number     2 of the first full s.c.f. cycle only.
  S.C.F. convergence parameters will be adjusted in iteration number     2 of the first full s.c.f. cycle only.
  No accuracy for occupation numbers given. Defaulting to  0.1000E-12.
  No threshold value for occupation numbers given. Defaulting to  0.0000E+00.
  No accuracy for fermi level given. Defaulting to  0.1000E-19.
  Maximum # of iterations to find E_F not set. Defaulting to  200.
  Preferred method for the eigenvalue solver ('KS_method') not specified in 'control.in'.
  Calling BLACS routine to test compilation state
  Since ScaLAPACK support is enabled, defaulting to ELPA (via ELSI).
  Will not use alltoall communication since running on < 1024 CPUs.
  Threshold for basis singularities not set.
  Default threshold for basis singularities:  0.1000E-04
  partition_type (choice of integration weights) for integrals was not specified.
  | Using a version of the partition function of Stratmann and coworkers ('stratmann_sparse').
  | At each grid point, the set of atoms used to build the partition table is smoothly restricted to
  | only those atoms whose free-atom density would be non-zero at that grid point.
  Partitioning for Hartree potential was not defined. Using partition_type for integrals.
  | Adjusted default value of keyword multip_moments_threshold to:       0.10000000E-11
  | This value may affect high angular momentum components of the Hartree potential in periodic systems.
  Spin handling was not defined in control.in. Defaulting to unpolarized case.
  Threshold for auxiliary basis singularities not set.
  Default threshold for auxiliary basis singularities:  0.1000E-04
  No q(lm)/r^(l+1) cutoff set for long-range Hartree potential.
  | Using default value of  0.100000E-09 .
  | Verify using the multipole_threshold keyword.
  Defaulting to new monopole extrapolation.
  Density update method: automatic selection selected.
  Coulomb operator: Defaulting to screening threshold for four-center integrals:   0.100000E-06
  Coulomb operator: Defaulting to screening threshold for Coulomb matrix:   0.100000E-09
  Fock matrix calculation: Setting the screening threshold for overlap matrix to coul_mat_threshold:   0.100000E-09
  Coulomb operator: Defaulting to 'LVL_fast' resolution of identity - RI_type = LVL_fast 
  No other resolution of identity version is supported for periodic boundary conditions at present.
  Coulomb operator: Defaulting to logarithmic spherical Bessel transform integrals (use_logsbt .true.).
  Charge integration errors on the 3D integration grid will be compensated
  by explicit normalization and distribution of residual charges.
  Use the "compensate_multipole_errors" flag to change this behaviour.
  LVL not implemented with density matrix yet
  -> switching to transformed overlap
  LVL probably works better with logsbt
  Default to 1D ("use_logsbt") integrations for auxiliary 2-center integrals.
  Default onset of logarithmic r-grid for SBT is -38.000000000000
  Default onset of logarithmic k-grid for SBT is -25.000000000000
  Default range of logarithmic r- and k-grid for SBT is  45.000000000000
  Default number of logarithmic r- and k-grid for SBT is   4096
  Default of use_2d_corr is to use the efficient 2D distribution where possible
  Set 'collect_eigenvectors' to be '.true.' for use_density_matrix .false.
 
  Consistency checks for the contents of geometry.in are next.
 
  Number of empty states per atom not set in control.in - providing a guess from actual geometry.
  | Total number of empty states used during s.c.f. cycle:       54
  If you use a very high smearing, use empty_states (per atom!) in control.in to increase this value.

  Structure-dependent array size parameters: 
  | Maximum number of distinct radial functions  :       18
  | Maximum number of basis functions            :      621
  | Number of Kohn-Sham states (occupied + empty):       99
------------------------------------------------------------
  Setting Coulomb cut-width to  1.091868692359 * rcut.
  Setting Coulomb cutting radius rcut to  8.000000000000 A.
  After read_input_data [GB]:    242.87

  Performing system and environment tests:
  | Environment variable OMP_NUM_THREADS correctly set to 1.
  | Checking for ScaLAPACK...
  | Testing pdtran()...
  | All pdtran() tests passed.
  After prepare_system [GB]:    242.82

------------------------------------------------------------
          Preparing all fixed parts of the calculation.
------------------------------------------------------------
  Determining machine precision:
    2.225073858507201E-308
  Setting up grids for atomic and cluster calculations.

  Creating wave function, potential, and density for free atoms.
  Runtime choices for atomic solver:
  | atomic solver xc        : PBE
  | compute density gradient: 1
  | compute kinetic density : F

  Species: O

  List of occupied orbitals and eigenvalues:
    n    l              occ      energy [Ha]    energy [eV]
    1    0           2.0000       -18.927378      -515.0401
    2    0           2.0000        -0.880539       -23.9607
    2    1           4.0000        -0.331811        -9.0290


  Species: H

  List of occupied orbitals and eigenvalues:
    n    l              occ      energy [Ha]    energy [eV]
    1    0           1.0000        -0.238386        -6.4868


  Adding cutoff potential to free-atom effective potential.
  Creating fixed part of basis set: Ionic, confined, hydrogenic.
 
  O                    hydrogenic:
 
  List of hydrogenic basis orbitals: 
    n    l      effective z      eigenvalue [eV]  inner max. [A]     outer max. [A]     outer radius [A]   
    2    1         1.800000       -11.0118           1.178562           1.178562           5.432602
    3    2         7.600000       -87.3182           0.624125           0.624125           3.541477
    3    0         6.400000       -61.9209           0.061167           1.081902           4.306578
    4    3        11.600000      -114.4238           0.731631           0.731631           3.585037
    3    1         6.200000       -58.1113           0.255680           1.030270           4.306578
    3    2         5.600000       -47.4081           0.847233           0.847233           4.413171
    5    4        17.600000      -168.5799           0.749740           0.749740           3.372465
    1    0         0.750000        -7.6499           0.705284           0.705284           5.366593
 
 
  H                    hydrogenic:
 
  List of hydrogenic basis orbitals: 
    n    l      effective z      eigenvalue [eV]  inner max. [A]     outer max. [A]     outer radius [A]   
    2    0         2.100000       -14.9965           0.193243           1.317208           5.373006
    2    1         3.500000       -41.6672           0.602369           0.602369           4.056063
    1    0         0.850000        -9.8292           0.624871           0.624871           5.373006
    2    1         3.700000       -46.5653           0.573622           0.573622           3.910002
    2    0         1.200000        -4.5995           0.334980           2.228188           5.505995
    3    2         7.000000       -74.0753           0.680699           0.680699           3.769201
 
  Creating atomic-like basis functions for current effective potential.

  Species O                   :

  List of atomic basis orbitals and eigenvalues:
    n    l      energy [Ha]    energy [eV]    outer radius [A]
    1    0       -18.927378      -515.0401       1.415765
    2    0        -0.880539       -23.9607       5.048385
    2    1        -0.331811        -9.0290       5.301386


  Species H                   :

  List of atomic basis orbitals and eigenvalues:
    n    l      energy [Ha]    energy [eV]    outer radius [A]
    1    0        -0.238386        -6.4868       5.373006

  Assembling full basis from fixed parts.
  | Species O :   atomic orbital   1 s accepted.
  | Species O :    hydro orbital   3 s accepted.
  | Species O :   atomic orbital   2 s accepted.
  | Species O :    hydro orbital   1 s accepted.
  | Species O :    hydro orbital   3 p accepted.
  | Species O :   atomic orbital   2 p accepted.
  | Species O :    hydro orbital   2 p accepted.
  | Species O :    hydro orbital   3 d accepted.
  | Species O :    hydro orbital   3 d accepted.
  | Species O :    hydro orbital   4 f accepted.
  | Species O :    hydro orbital   5 g accepted.
  | Species H :   atomic orbital   1 s accepted.
  | Species H :    hydro orbital   2 s accepted.
  | Species H :    hydro orbital   1 s accepted.
  | Species H :    hydro orbital   2 s accepted.
  | Species H :    hydro orbital   2 p accepted.
  | Species H :    hydro orbital   2 p accepted.
  | Species H :    hydro orbital   3 d accepted.
 
  Basis size parameters after reduction:
  | Total number of radial functions:       18
  | Total number of basis functions :      621
 
  Per-task memory consumption for arrays in subroutine allocate_ext:
  |           6.010732MB.
  Testing on-site integration grid accuracy.
  |  Species  Function  <phi|h_atom|phi> (log., in eV)  <phi|h_atom|phi> (rad., in eV)
           1        1               -515.0401491148               -515.0401445497
           1        2                 15.1629302771                 15.1629233102
           1        3                -21.6127103295                -21.6127145449
           1        4                 14.4001435709                 14.4001765990
           1        5                 20.8862585187                 20.8862589491
           1        6                 -2.4803658578                 -2.4803665016
           1        7                 13.8586387760                 13.8586021622
           1        8                 45.8331828879                 45.8331828941
           1        9                 52.1851961049                 52.1851977023
           1       10                 85.4133898762                 85.4133899074
           1       11                142.1023296234                142.1023296272
           2       12                 -6.4870767962                 -6.4871688290
           2       13                 13.5032046589                 13.5028982997
           2       14                 32.8195184817                 32.8119941656
           2       15                 33.8513856512                 33.7670005767 ***
           2       16                 28.8544614965                 28.8544615203
           2       17                 59.6326952547                 59.6327656460
           2       18                 60.2719308513                 60.2719305949
 * Note: Onsite integrals marked "***" above are less accurate than
 * onsite_accuracy_threshold =    0.03000 eV. Usually, this is harmless.
 * When in doubt, tighten the "radial" and/or "radial_multiplier" flags to check.

  Preparing densities etc. for the partition functions (integrals / Hartree potential).

  Preparations completed.
  max(cpu_time)          :      0.113 s.
  Wall clock time (cpu1) :      0.113 s.
------------------------------------------------------------
  After prepare_scf [GB]:    242.63

  Initializing index lists of integration centers etc. from given atomic structure:
  | Number of centers in hartree potential         :        27
  | Number of centers in hartree multipole         :        27
  | Number of centers in electron density summation:        27
  | Number of centers in basis integrals           :        27
  | Number of centers in integrals                 :        27
  | Number of centers in hamiltonian               :        27
  After initialize_bc_dependent_lists [GB]:    242.63

------------------------------------------------------------
          Begin self-consistency loop: Initialization.

          Date     :  20240806, Time     :  202733.705
------------------------------------------------------------
  Available memory per node after initialize_hartree_non_periodic_ewald [GB]:    242.63
  Available memory per node after initialize_recip_hartree_potential [GB]:    242.63
  * Using 8 tasks for Scalapack Eigenvalue solver.
  Detailed listing of tasks and assigned k-points:
  (for non-periodic systems, the "k-point" denotes an internal label only)
   Task     0 k-point     1 on ravc2127
   Task     1 k-point     1 on ravc2127
   Task     2 k-point     1 on ravc2127
   Task     3 k-point     1 on ravc2127
   Task     4 k-point     1 on ravc2127
   Task     5 k-point     1 on ravc2127
   Task     6 k-point     1 on ravc2127
   Task     7 k-point     1 on ravc2127
  Tasks:     8 split into      4 X      2 BLACS grid
  Calculating block size based on n_basis =          621  max_nprow =            4  max_npcol =            2
  ScaLAPACK block size set to:           16
  Allocating        0.387 MB for ovlp
  Allocating        0.387 MB for ham
  Allocating        0.387 MB for eigenvec
  Required Scalapack workspace - INTEGER:            1  REAL:             1
  Available memory per node after initialize_scalapack [GB]:    242.62
  Available memory per node after aims_elsi_init_scf [GB]:    242.62
  Available memory per node after initialize_fixed_grids [GB]:    242.62
  Partitioning the integration grid into batches with parallel hashing+maxmin method.
  | Number of batches:     4175
  | Maximal batch size:     184
  | Minimal batch size:      52
  | Average batch size:     105.711
  | Standard deviation of batch sizes:      29.246

  Integration load balanced across     8 MPI tasks.
  Work distribution over tasks is as follows:
  Task     0 has      55169 integration points.
  Task     1 has      55146 integration points.
  Task     2 has      55147 integration points.
  Task     3 has      55191 integration points.
  Task     4 has      55191 integration points.
  Task     5 has      55100 integration points.
  Task     6 has      55168 integration points.
  Task     7 has      55230 integration points.
  Available memory per node after partition_grid [GB]:    242.58
  Initializing partition tables, free-atom densities, potentials, etc. across the integration grid (initialize_grid_storage).
  | initialize_grid_storage: Actual outermost partition radius vs. multipole_radius_free
  | (-- VB: in principle, multipole_radius_free should be larger, hence this output)
  | Species        1: Confinement radius =              6.000000000000000 AA, multipole_radius_free =              6.064445521808699 AA.
  | Species        1: outer_partition_radius set to              6.064445521808699 AA .
  | Species        2: Confinement radius =              6.000000000000000 AA, multipole_radius_free =              6.071692442739658 AA.
  | Species        2: outer_partition_radius set to              6.071692442739658 AA .
  | The sparse table of interatomic distances needs          8.54 kbyte instead of         5.83 kbyte of memory.
  | Using the partition_type stratmann_smoother will reduce your memory usage.
  | Net number of integration points:   441342
  | of which are non-zero points    :   353917
  Available memory per node after initialize_grid_storage_p1 [GB]:    242.55
  Renormalizing the initial density to the exact electron count on the 3D integration grid.
  | Initial density: Formal number of electrons (from input files) :      90.0000000000
  | Integrated number of electrons on 3D grid     :      90.0000321007
  | Charge integration error                      :       0.0000321007
  | Normalization factor for density and gradient :       0.9999996433
  Renormalizing the free-atom superposition density to the exact electron count on the 3D integration grid.
  | Formal number of electrons (from input files) :      90.0000000000
  | Integrated number of electrons on 3D grid     :      90.0000321007
  | Charge integration error                      :       0.0000321007
  | Normalization factor for density and gradient :       0.9999996433
  Obtaining max. number of non-zero basis functions in each batch (get_n_compute_maxes).
  | Maximal number of non-zero basis functions:      608 in task     0
  | Maximal number of non-zero basis functions:      614 in task     1
  | Maximal number of non-zero basis functions:      606 in task     2
  | Maximal number of non-zero basis functions:      609 in task     3
  | Maximal number of non-zero basis functions:      609 in task     4
  | Maximal number of non-zero basis functions:      609 in task     5
  | Maximal number of non-zero basis functions:      609 in task     6
  | Maximal number of non-zero basis functions:      609 in task     7
  Selecting the method for density update.
  Loop over occupied states selected for charge density update.
  Available memory per node after get_n_compute_maxes_p1 [GB]:    242.55
  Allocating        0.469 MB for KS_eigenvector
  Available memory per node after allocate_matrices [GB]:    242.55
  Available memory per node after init_comm_sparse_local_matrix_scalapack [GB]:    242.55
  Integrating Hamiltonian matrix: batch-based integration.
  Time summed over all CPUs for integration: real work        7.268 s, elapsed        7.448 s
  Available memory per node after integrate hamiltonian matrix [GB]:    242.48
  Integrating overlap matrix.
  Time summed over all CPUs for integration: real work        3.306 s, elapsed        3.338 s
  Available memory per node after integrate ovlp matrix [GB]:    242.46
  Available memory per node after ASI_callbacks invoke [GB]:    242.46
  Deallocating overlap matrix.
  Available memory per node after save_overlap_scalapack [GB]:    242.46

  Updating Kohn-Sham eigenvalues and eigenvectors using ELSI and the ELPA eigensolver.
  Overlap matrix is not singular
  | Lowest and highest eigenvalues :  0.1211E-03,  0.1249E+02
  Finished singularity check of overlap matrix
  | Time :     0.017 s
  Starting ELPA eigensolver
  Finished Cholesky decomposition
  | Time :     0.004 s
  Finished transformation to standard eigenproblem
  | Time :     0.003 s
  Finished solving standard eigenproblem
  | Time :     0.019 s
  Finished back-transformation of eigenvectors
  | Time :     0.001 s

  Obtaining occupation numbers and electronic chemical potential using ELSI.
  | Note that, for insulating systems, the printed 'chemical potential' value is not uniquely defined.
  | It can be anywhere in the energy gap, as long as it correctly separates occupied and unoccupied states.
  | In systems with a gap, the physically relevant chemical potential is the VBM or HOMO.

  | Chemical potential (Fermi level):    -7.97129686 eV
  Available memory per node after advance_KS_solution [GB]:    242.44
  Writing Kohn-Sham eigenvalues.

  State    Occupation    Eigenvalue [Ha]    Eigenvalue [eV]
      1       2.00000         -19.040987         -518.13162
      2       2.00000         -19.040681         -518.12330
      3       2.00000         -19.040265         -518.11197
      4       2.00000         -19.040073         -518.10675
      5       2.00000         -19.039991         -518.10451
      6       2.00000         -19.039907         -518.10224
      7       2.00000         -19.039834         -518.10024
      8       2.00000         -19.038368         -518.06035
      9       2.00000         -19.038363         -518.06020
     10       2.00000          -1.121444          -30.51603
     11       2.00000          -1.114372          -30.32360
     12       2.00000          -1.112430          -30.27076
     13       2.00000          -1.110262          -30.21177
     14       2.00000          -1.106574          -30.11140
     15       2.00000          -1.103068          -30.01601
     16       2.00000          -1.102019          -29.98746
     17       2.00000          -1.100570          -29.94804
     18       2.00000          -1.095017          -29.79694
     19       2.00000          -0.660745          -17.97979
     20       2.00000          -0.657390          -17.88849
     21       2.00000          -0.651873          -17.73837
     22       2.00000          -0.644810          -17.54618
     23       2.00000          -0.644227          -17.53031
     24       2.00000          -0.636753          -17.32693
     25       2.00000          -0.635821          -17.30157
     26       2.00000          -0.633009          -17.22506
     27       2.00000          -0.631224          -17.17649
     28       2.00000          -0.548443          -14.92389
     29       2.00000          -0.534524          -14.54514
     30       2.00000          -0.530963          -14.44824
     31       2.00000          -0.528623          -14.38456
     32       2.00000          -0.517341          -14.07756
     33       2.00000          -0.512773          -13.95326
     34       2.00000          -0.508375          -13.83359
     35       2.00000          -0.505544          -13.75655
     36       2.00000          -0.492742          -13.40819
     37       2.00000          -0.455269          -12.38851
     38       2.00000          -0.451149          -12.27639
     39       2.00000          -0.450792          -12.26668
     40       2.00000          -0.448662          -12.20870
     41       2.00000          -0.447373          -12.17363
     42       2.00000          -0.444788          -12.10330
     43       2.00000          -0.443317          -12.06326
     44       2.00000          -0.441040          -12.00132
     45       2.00000          -0.440273          -11.98044
     46       0.00000          -0.104671           -2.84826
     47       0.00000          -0.073248           -1.99319
     48       0.00000          -0.061385           -1.67038
     49       0.00000          -0.051869           -1.41142
     50       0.00000          -0.031042           -0.84469
     51       0.00000          -0.027776           -0.75581
     52       0.00000          -0.020818           -0.56649
     53       0.00000          -0.013786           -0.37514
     54       0.00000           0.012664            0.34461
     55       0.00000           0.029153            0.79328
     56       0.00000           0.032459            0.88325
     57       0.00000           0.037464            1.01944
     58       0.00000           0.045235            1.23091
     59       0.00000           0.047358            1.28869
     60       0.00000           0.057514            1.56503
     61       0.00000           0.059694            1.62436
     62       0.00000           0.068555            1.86547
     63       0.00000           0.074371            2.02373
     64       0.00000           0.077671            2.11353
     65       0.00000           0.079101            2.15244
     66       0.00000           0.083183            2.26354
     67       0.00000           0.087411            2.37857
     68       0.00000           0.095647            2.60269
     69       0.00000           0.102483            2.78871
     70       0.00000           0.105458            2.86966
     71       0.00000           0.107124            2.91498
     72       0.00000           0.108512            2.95276
     73       0.00000           0.115847            3.15234
     74       0.00000           0.117148            3.18777
     75       0.00000           0.124728            3.39402
     76       0.00000           0.126180            3.43354
     77       0.00000           0.131177            3.56951
     78       0.00000           0.135765            3.69436
     79       0.00000           0.144354            3.92807
     80       0.00000           0.151498            4.12246
     81       0.00000           0.154955            4.21653
     82       0.00000           0.159250            4.33342
     83       0.00000           0.164058            4.46425
     84       0.00000           0.171808            4.67514
     85       0.00000           0.179918            4.89583
     86       0.00000           0.187617            5.10531
     87       0.00000           0.195538            5.32087
     88       0.00000           0.207523            5.64700
     89       0.00000           0.218359            5.94186
     90       0.00000           0.243298            6.62048
     91       0.00000           0.247330            6.73020
     92       0.00000           0.256936            6.99159
     93       0.00000           0.260743            7.09518
     94       0.00000           0.269590            7.33591
     95       0.00000           0.271492            7.38767
     96       0.00000           0.295453            8.03970
     97       0.00000           0.304910            8.29703
     98       0.00000           0.308620            8.39799
     99       0.00000           0.311836            8.48549

  Highest occupied state (VBM) at    -11.98043811 eV
  | Occupation number:      2.00000000

  Lowest unoccupied state (CBM) at    -2.84825617 eV
  | Occupation number:      0.00000000

  Overall HOMO-LUMO gap:      9.13218194 eV.
  Calculating total energy contributions from superposition of free atom densities.

  Total energy components:
  | Sum of eigenvalues            :        -391.64413681 Ha      -10657.17919383 eV
  | XC energy correction          :         -81.53928855 Ha       -2218.79693255 eV
  | XC potential correction       :         104.88105318 Ha        2853.95866472 eV
  | Free-atom electrostatic energy:        -320.61988887 Ha       -8724.51107431 eV
  | Hartree energy correction     :           0.00000000 Ha           0.00000000 eV
  | Entropy correction            :           0.00000000 Ha           0.00000000 eV
  | ---------------------------
  | Total energy                  :        -688.92226105 Ha      -18746.52853597 eV
  | Total energy, T -> 0          :        -688.92226105 Ha      -18746.52853597 eV  <-- do not rely on this value for anything but (periodic) metals
  | Electronic free energy        :        -688.92226105 Ha      -18746.52853597 eV

  Derived energy quantities:
  | Kinetic energy                :         682.04710158 Ha       18559.44592825 eV
  | Electrostatic energy          :       -1289.43007408 Ha      -35087.17753166 eV
  | Energy correction for multipole
  | error in Hartree potential    :           0.00000000 Ha           0.00000000 eV
  | Sum of eigenvalues per atom                           :        -394.71034051 eV
  | Total energy (T->0) per atom                          :        -694.31587170 eV  <-- do not rely on this value for anything but (periodic) metals
  | Electronic free energy per atom                       :        -694.31587170 eV
  
  --------------------------------------------
  Constructing auxiliary basis (full product) ...
  
  Product basis:
  | charge radius: extent of product basis function
  | field radius: extent of its Coulomb potential
  | Species   l  charge radius    field radius  multipol momen
  |    O      0     2.043000 A      2.043000 A        6.592599E-17 a.u.
  |    O      7     3.498446 A      3.498446 A        2.237585E-14 a.u.
  |    O      6     3.585037 A      3.585037 A        1.895945E-15 a.u.
  |    O      6     3.718959 A      3.718959 A        7.269419E-15 a.u.
  |    O      6     3.764702 A      3.764702 A       -2.924334E-14 a.u.
  |    O      4     3.811008 A      3.811008 A       -1.665788E-15 a.u.
  |    O      5     3.811008 A      3.811008 A        5.872647E-17 a.u.
  |    O      3     3.857883 A      3.857883 A        1.726430E-16 a.u.
  |    O      5     3.857883 A      3.857883 A        8.953002E-15 a.u.
  |    O      5     3.905335 A      3.905335 A        4.344963E-15 a.u.
  |    O      3     3.953371 A      3.953371 A        2.313341E-16 a.u.
  |    O      3     3.953371 A      3.953371 A       -7.541056E-17 a.u.
  |    O      1     4.151495 A      4.151495 A        4.801012E-17 a.u.
  |    O      0     4.202559 A      4.202559 A        1.682649E-16 a.u.
  |    O      0     4.202559 A      4.202559 A       -1.027788E-16 a.u.
  |    O      4     4.359549 A      4.359549 A        1.000664E-15 a.u.
  |    O      3     4.413171 A      4.413171 A       -6.834549E-15 a.u.
  |    O      4     4.413171 A      4.413171 A        2.385511E-16 a.u.
  |    O      0     4.467453 A      4.467453 A        8.737127E-17 a.u.
  |    O      1     4.467453 A      4.467453 A        1.535410E-17 a.u.
  |    O      4     4.467453 A      4.467453 A        8.343630E-15 a.u.
  |    O      4     4.467453 A      4.467453 A        9.401644E-15 a.u.
  |    O      1     4.578029 A      4.578029 A        8.939318E-17 a.u.
  |    O      2     4.578029 A      4.578029 A       -1.184320E-16 a.u.
  |    O      1     4.634338 A      4.634338 A       -1.927014E-16 a.u.
  |    O      1     4.634338 A      4.634338 A        2.456376E-16 a.u.
  |    O      1     4.634338 A      4.634338 A       -2.254744E-17 a.u.
  |    O      3     4.691341 A      4.691341 A       -1.333902E-14 a.u.
  |    O      3     4.749044 A      4.749044 A       -1.400589E-15 a.u.
  |    O      3     4.749044 A      4.749044 A       -4.087546E-15 a.u.
  |    O      0     4.987044 A      4.987044 A       -2.444724E-16 a.u.
  |    O      0     4.987044 A      4.987044 A       -6.894723E-17 a.u.
  |    O      2     5.236971 A      5.236971 A        6.480941E-16 a.u.
  |    O      2     5.236971 A      5.236971 A       -1.528220E-15 a.u.
  |    O      0     5.366593 A      5.432602 A       -9.489304E-17 a.u.
  |    O      1     5.432602 A      5.432602 A       -2.564074E-16 a.u.
  |    O      1     5.432602 A      5.432602 A       -1.428513E-16 a.u.
  |    O      2     5.432602 A      5.432602 A        8.650849E-16 a.u.
  |    O      2     5.432602 A      5.432602 A       -1.089596E-15 a.u.
  |    O      2     5.432602 A      5.432602 A        3.233072E-17 a.u.
  |    O      0     5.432602 A      5.499423 A        1.981919E-16 a.u.
  |    O      1     5.432602 A      5.499423 A        6.659838E-16 a.u.
  |    O      2     5.432602 A      5.499423 A       -1.999084E-16 a.u.
  |    O      2     5.432602 A      5.499423 A        2.199334E-15 a.u.
  |    O      8     3.372465 A  2.352329E+01 A           53.933996 a.u.
  |    O      7     3.541477 A  4.005749E+01 A           85.792738 a.u.
  |    O      6     3.811008 A  8.478793E+01 A          215.734909 a.u.
  |    O      5     3.905335 A  1.625761E+02 A           66.915101 a.u.
  |    O      4     4.522403 A  5.113866E+02 A           67.070426 a.u.
  |    O      3     4.807458 A  2.586311E+03 A           45.405529 a.u.
  |    O      2     5.499423 A  2.884318E+04 A           12.885943 a.u.
  |    O      1     5.432602 A  2.965977E+06 A            2.499905 a.u.
  |    O      0     5.432602 A  4.308149E+12 A            0.647858 a.u.
  |    H      3     3.910002 A      3.910002 A       -1.041383E-15 a.u.
  |    H      3     3.910002 A      3.910002 A       -2.919639E-16 a.u.
  |    H      2     4.006780 A      4.006780 A       -3.476533E-17 a.u.
  |    H      2     4.156456 A      4.156456 A       -1.767231E-16 a.u.
  |    H      2     4.156456 A      4.156456 A       -2.507086E-15 a.u.
  |    H      1     4.207581 A      4.207581 A        7.754623E-17 a.u.
  |    H      2     4.207581 A      4.207581 A       -1.536325E-16 a.u.
  |    H      1     4.259334 A      4.259334 A        2.593088E-16 a.u.
  |    H      2     4.259334 A      4.259334 A        2.012189E-16 a.u.
  |    H      1     4.311724 A      4.364758 A       -1.002378E-16 a.u.
  |    H      1     4.527807 A      4.527807 A        1.249045E-17 a.u.
  |    H      1     4.472792 A      4.527807 A       -7.012741E-16 a.u.
  |    H      1     4.472792 A      4.527807 A        7.177619E-18 a.u.
  |    H      0     5.307721 A      5.307721 A       -6.920983E-17 a.u.
  |    H      0     5.307721 A      5.373006 A       -2.531617E-16 a.u.
  |    H      0     5.439094 A      5.505995 A       -2.429147E-16 a.u.
  |    H      0     5.439094 A      5.505995 A        8.821671E-17 a.u.
  |    H      0     5.439094 A      5.505995 A        1.289626E-17 a.u.
  |    H      0     5.439094 A      5.505995 A       -2.595208E-16 a.u.
  |    H      0     5.505995 A      5.573719 A        8.924839E-19 a.u.
  |    H      0     5.505995 A      5.573719 A        7.699972E-16 a.u.
  |    H      4     3.723403 A  2.580116E+02 A            2.192707 a.u.
  |    H      3     3.958095 A  1.432892E+03 A            4.277983 a.u.
  |    H      2     4.259334 A  2.202637E+04 A            5.738728 a.u.
  |    H      1     4.472792 A  2.627400E+06 A            1.961735 a.u.
  |    H      0     5.505995 A  5.052187E+12 A            0.759746 a.u.

  | Shrink_full_auxil_basis : there are       79  radial auxiliary wave functions
                            accepted and     113 rejected.
  | Shrink_full_auxil_basis : there are totally                4653 partial auxiliary wave functions.
  prodbas_tasks_distribution_pbc not up to date - distributing tasks.
 
  | Maximal number of product basis functions per thread :   592   592
 
  | Number of local auxiliary basis funcs on node     0 :    592
  | Number of local auxiliary basis funcs on node     1 :    592
  | Number of local auxiliary basis funcs on node     2 :    589
  | Number of local auxiliary basis funcs on node     3 :    576
  | Number of local auxiliary basis funcs on node     4 :    576
  | Number of local auxiliary basis funcs on node     5 :    576
  | Number of local auxiliary basis funcs on node     6 :    576
  | Number of local auxiliary basis funcs on node     7 :    576
  Parallel distribution of product basis not up to date - distributing tasks.
 
  | Maximal number of product basis functions per thread :   592   592
 
  | Minimal total memory requirement for three-center overlap :       7.143 Gbs
  | Number of local auxiliary basis functions on task:      0   592
  | Number of local auxiliary basis functions on task:      1   592
  | Number of local auxiliary basis functions on task:      2   589
  | Number of local auxiliary basis functions on task:      3   576
  | Number of local auxiliary basis functions on task:      4   576
  | Number of local auxiliary basis functions on task:      5   576
  | Number of local auxiliary basis functions on task:      6   576
  | Number of local auxiliary basis functions on task:      7   576
  | 2D aux task distribution:      2 X      4
  | 2D block size (nb_aux_2d):     64
  | Task at    0 x    0 gets   2349 x   1197 entries of 2D aux
  | Task at    0 x    1 gets   2349 x   1152 entries of 2D aux
  | Task at    0 x    2 gets   2349 x   1152 entries of 2D aux
  | Task at    0 x    3 gets   2349 x   1152 entries of 2D aux
  | Task at    1 x    0 gets   2304 x   1197 entries of 2D aux
  | Task at    1 x    1 gets   2304 x   1152 entries of 2D aux
  | Task at    1 x    2 gets   2304 x   1152 entries of 2D aux
  | Task at    1 x    3 gets   2304 x   1152 entries of 2D aux
  Minimal free memory per node on init_fm entry [GB]:    242.39
  -----------------------------------------
  --- Initializing Fock matrix calculations
  -----------------------------------------
  screening_threshold (crit_val) =  0.000000100000
  coul_mat_threshold =  0.000000000100
  No atoms are split internally
  Number of super-cells in X Y Z:       0       0       0
  Number of atoms pairs total:          729
  Atom pair distribution:
  Cell:        0       0       0 atom pairs:      729
  sparsity of pfbvk:   1.000000
  Number of atoms pairs in BvK cells:          729
  Max. memory consumption per node for Pulay mixing [GB]:      0.03
  Minimal total memory per node [GB]:    263.11
  Minimal free memory per node [GB]:    242.39
  --- Initializing LVL triples, type COULOMB
  | Storage requirements for basis-basbas products (processor-local):
  |   Species O: n_prodsfn:  1094; storage:       34.19 MiB.
  |   Species H: n_prodsfn:   243; storage:        7.59 MiB.

  --- Initializing Coulomb matrix calculations, type COULOMB
  Preparing TB like auxiliary 2-center Coulomb matrix
  SBT integration errors (all should be 'small'):
  large logFT aliasing -> increase N/lnrange
  large SBT aliasing -> decrease lnk0 & increase lnk0+lnrange
  large SBT ringing -> decrease lnr0 & increase lnr0+lnrange
  |            El't  L: logFT-al.   small-k   large-k   small-r   large-r
  | Need to store  6748 splines of   227 points taking      12080 KiB.
  | Spline reduction from  4096 to   227 points by (cutting and)     1 x coarsening gives error:  0.00E+00
  Finished with initialize_tb_auxmat/lvl_triples, time:        0.354
  --- Calculating Coulomb matrices
  Upper limit for memory consumption per node [GB] for Coulomb matrices if no compression occurs:       0.693
  Upper limit for temporary arrays in Coulomb matrix initalization [GB]:      2.40
  Allocating        0.866 MB for aux_mat
  Allocating        2.599 MB for d_aux_mat
  Min./max. time for Coulomb matrix computation [s]:      0.22      0.34
  Max. memory consumption per node for global Coulomb matrix [GB]:      0.66
  Time to calculate Coulomb Matrices   :        0.383
  After init_coulomb_tuned [GB]:    240.88
  Max. memory consumption per node for uncompressed ovlp3fn matrix [GB]:       2.833
  --- Calculating OVLP3FN
  --- Done calculating OVLP3FN, time:       37.494
  After init_ovlp3fn_tuned2 [GB]:    237.78
  Max. memory consumption per node for compressed global ovlp3fn matrix [GB]:       5.534
  Atomic logSBT for 2-center Coulomb matrix    :  max(cpu_time)    wall_clock(cpu1)
  | TB initialization                           :        0.256 s           0.256 s
  | TB usage                                    :        0.461 s           0.459 s

  Atomic logSBT for LVL-triples                :  max(cpu_time)    wall_clock(cpu1)
  | Multiplication with kernel                  :        0.269 s           0.172 s
  | Main matrix multiplication                  :       21.740 s          21.793 s
  | Analytic angular integration                :        0.260 s           0.161 s
  | Kernel construction                         :        0.342 s           0.183 s
  | Overall 2-center overlap time               :       23.540 s          23.548 s
  | 3-center preparation multiplications        :        0.092 s           0.091 s
  | 3-center preparation SBTs                   :        2.172 s           2.170 s
  | 3-center combinations                       :       28.456 s          28.458 s
  | Overal 3-center time                        :       30.721 s          30.723 s
  | LVL initialization                          :        0.097 s           0.098 s
  | Whole LVL-triples                           :        0.097 s           0.098 s

  Assumed free memory per node for Fock matrix prefactors [GB]    216.08
  Memory per instance for Coulomb / ovlp matrix [GB]      0.66      5.53
  Number of nodes, tasks per node     1     8
  Number of instances:    2
  -----------------------------------------------------
  Dividing atoms among tasks for exact exchange energy:
  Atom:     1 Weight:  0.81618E+07
  Atom:     2 Weight:  0.83835E+06
  Atom:     3 Weight:  0.83835E+06
  Atom:     4 Weight:  0.81618E+07
  Atom:     5 Weight:  0.83835E+06
  Atom:     6 Weight:  0.83835E+06
  Atom:     7 Weight:  0.81618E+07
  Atom:     8 Weight:  0.83835E+06
  Atom:     9 Weight:  0.83835E+06
  Atom:    10 Weight:  0.81618E+07
  Atom:    11 Weight:  0.83835E+06
  Atom:    12 Weight:  0.83835E+06
  Atom:    13 Weight:  0.81618E+07
  Atom:    14 Weight:  0.83835E+06
  Atom:    15 Weight:  0.83835E+06
  Atom:    16 Weight:  0.81618E+07
  Atom:    17 Weight:  0.83835E+06
  Atom:    18 Weight:  0.83835E+06
  Atom:    19 Weight:  0.81618E+07
  Atom:    20 Weight:  0.83835E+06
  Atom:    21 Weight:  0.83835E+06
  Atom:    22 Weight:  0.81618E+07
  Atom:    23 Weight:  0.83835E+06
  Atom:    24 Weight:  0.83835E+06
  Atom:    25 Weight:  0.81618E+07
  Atom:    26 Weight:  0.83835E+06
  Atom:    27 Weight:  0.83835E+06

  Average weight per task:  0.22137E+08

  Number of "big" (above average) atoms  :     0
  Number of "small" (below average) atoms:    27

  All atoms have below average work per task
  No atom will be divided among tasks, atoms will be sorted to get best load distribution

  Atom division among tasks:
  Atom     1: (initial) task:     0, # of tasks:     1
  Atom     2: (initial) task:     1, # of tasks:     1
  Atom     3: (initial) task:     2, # of tasks:     1
  Atom     4: (initial) task:     3, # of tasks:     1
  Atom     5: (initial) task:     1, # of tasks:     1
  Atom     6: (initial) task:     2, # of tasks:     1
  Atom     7: (initial) task:     1, # of tasks:     1
  Atom     8: (initial) task:     2, # of tasks:     1
  Atom     9: (initial) task:     2, # of tasks:     1
  Atom    10: (initial) task:     2, # of tasks:     1
  Atom    11: (initial) task:     0, # of tasks:     1
  Atom    12: (initial) task:     3, # of tasks:     1
  Atom    13: (initial) task:     0, # of tasks:     1
  Atom    14: (initial) task:     3, # of tasks:     1
  Atom    15: (initial) task:     1, # of tasks:     1
  Atom    16: (initial) task:     3, # of tasks:     1
  Atom    17: (initial) task:     1, # of tasks:     1
  Atom    18: (initial) task:     1, # of tasks:     1
  Atom    19: (initial) task:     2, # of tasks:     1
  Atom    20: (initial) task:     1, # of tasks:     1
  Atom    21: (initial) task:     1, # of tasks:     1
  Atom    22: (initial) task:     1, # of tasks:     1
  Atom    23: (initial) task:     0, # of tasks:     1
  Atom    24: (initial) task:     0, # of tasks:     1
  Atom    25: (initial) task:     3, # of tasks:     1
  Atom    26: (initial) task:     0, # of tasks:     1
  Atom    27: (initial) task:     0, # of tasks:     1

  -----------------------------------------------------
  Task      0: my_n_atoms2:      7 my_atom_list:      1    11    13    23    24    26    27
  Task      1: my_n_atoms2:      9 my_atom_list:      2     5     7    15    17    18    20    21    22
  Task      2: my_n_atoms2:      6 my_atom_list:      3     6     8     9    10    19
  Task      3: my_n_atoms2:      5 my_atom_list:      4    12    14    16    25
  Task      0: my_n_atoms2:      7 my_atom_list:      1    11    13    23    24    26    27
  Task      1: my_n_atoms2:      9 my_atom_list:      2     5     7    15    17    18    20    21    22
  Task      2: my_n_atoms2:      6 my_atom_list:      3     6     8     9    10    19
  Task      3: my_n_atoms2:      5 my_atom_list:      4    12    14    16    25
  Task      0: my_n_atom_pairs:    189
  Task      1: my_n_atom_pairs:    243
  Task      2: my_n_atom_pairs:    162
  Task      3: my_n_atom_pairs:    135
  Task      0: my_n_atom_pairs:    189
  Task      1: my_n_atom_pairs:    243
  Task      2: my_n_atom_pairs:    162
  Task      3: my_n_atom_pairs:    135
  Transferring Coulomb matrix to final data layout
  Coulomb matrix communicaton time [s]    0.02
  Coulomb matrix communicaton time [s]    0.02
  Coulomb matrix communicaton time [s]    0.02
  Coulomb matrix communicaton time [s]    0.02
  Max. memory per node for ovlp3fn matrices:        5.647 GB
  Total memory for ovlp3fn matrices:        2.824 GB
  --- Done getting norm of OVLP3FN, time:        0.010
  Total memory for ovlp3fn matrices:        2.824 GB
  --- time for get_ovlp3fn:        0.500
  Max. memory consumption per node for Hartree Fock matrix [GB]      0.03
  Blocksize for Fock matrix computation:    20
  Minimal free memory per node after Fock matrix initialization [GB]:    234.13
  Initialize hartree_potential_storage
  Max. number of atoms included in rho_multipole:           27

  End scf initialization - timings             :  max(cpu_time)    wall_clock(cpu1)
  | Time for scf. initialization                :       41.258 s          41.261 s
  | Boundary condition initialization           :        0.003 s           0.003 s
  | Integration                                 :        1.355 s           1.355 s
  | Solution of K.-S. eqns.                     :        0.046 s           0.046 s
  | Grid partitioning                           :        0.228 s           0.228 s
  | Preloading free-atom quantities on grid     :        0.561 s           0.560 s
  | Free-atom superposition energy              :        0.085 s           0.085 s
  | Total energy evaluation                     :        0.000 s           0.000 s
  | Product basis setup: Total time             :       38.981 s          38.983 s

  Partial memory accounting:
  | Current value for overall tracked memory usage:
  |   Minimum:      579.538 MB (on task 6)
  |   Maximum:      764.778 MB (on task 3)
  |   Average:      651.504 MB
  | Peak value for overall tracked memory usage:
  |   Minimum:      637.703 MB (on task 4 after allocating ovlp3fn2%n)
  |   Maximum:      895.697 MB (on task 7 after allocating ovlp3fn2%n)
  |   Average:      736.025 MB
  | Largest tracked array allocation so far:
  |   Minimum:      149.669 MB (ovlp3fn2%dat on task 2)
  |   Maximum:      198.613 MB (ovlp3fn2%dat on task 3)
  |   Average:      168.306 MB
  Note:  These values currently only include a subset of arrays which are explicitly tracked.
  The "true" memory usage will be greater.
------------------------------------------------------------
  Available memory after initialize_scf [GB]:    234.13
  Available memory after allocating mixing [GB]:    234.13
  Evaluating new KS density.
  Integration grid: deviation in total charge (<rho> - N_e) =   1.421085E-14

  Time for density update prior                :  max(cpu_time)    wall_clock(cpu1)
  | self-consistency iterative process          :        0.691 s           0.690 s
  Available memory before start of SCF loop [GB]:    234.13

------------------------------------------------------------
          Begin self-consistency iteration #    1

  Date     :  20240806, Time     :  202815.656
------------------------------------------------------------
  Pulay mixing of updated and previous charge densities.
  Available memory per node after mixing [GB]:    234.13
  Renormalizing the density to the exact electron count on the 3D integration grid.
  | Formal number of electrons (from input files) :      90.0000000000
  | Integrated number of electrons on 3D grid     :      90.0000000000
  | Charge integration error                      :      -0.0000000000
  | Normalization factor for density and gradient :       1.0000000000

  Evaluating partitioned Hartree potential by multipole expansion.
  | Original multipole sum: apparent total charge =  -0.163317E-12
  | Sum of charges compensated after spline to logarithmic grids =   0.116850E-05
  | Analytical far-field extrapolation by fixed multipoles:
  | Hartree multipole sum: apparent total charge =  -0.163232E-12
  |
  | Multipole moments used in the electrostatic potential :
  | What we write is -moment*sqrt(pi/4) , which gives charges in e etc.
  |
  | Atom         1:   l   m          moment
  |                   0   0     -0.02716938
  |                   1  -1     -0.00091456
  |                   1   0     -0.00001628
  |                   1   1      0.00026828
  |                   2  -2     -0.00140478
  |                   2  -1      0.00101119
  |                   2   0      0.00006125
  |                   2   1      0.00083278
  |                   2   2      0.00026480
  |                   3  -3     -0.00476267
  |                   3  -2      0.00171248
  |                   3  -1     -0.00445889
  |                   3   0      0.00189981
  |                   3   1     -0.00240407
  |                   3   2     -0.00375021
  |                   3   3      0.00206296
  |                   4  -4     -0.00730096
  |                   4  -3      0.00341821
  |                   4  -2     -0.00643134
  |                   4  -1      0.00249893
  |                   4   0     -0.00342977
  |                   4   1     -0.00022132
  |                   4   2      0.00664707
  |                   4   3     -0.00062132
  |                   4   4      0.00037667
  |                   5  -5     -0.00774826
  |                   5  -4      0.01109525
  |                   5  -3     -0.01529638
  |                   5  -2     -0.00466399
  |                   5  -1     -0.00630640
  |                   5   0     -0.00360069
  |                   5   1      0.00042391
  |                   5   2      0.00127914
  |                   5   3      0.00555232
  |                   5   4     -0.01146180
  |                   5   5      0.01717916
  |                   6  -6      0.00993249
  |                   6  -5      0.03021383
  |                   6  -4     -0.03234343
  |                   6  -3      0.01691009
  |                   6  -2     -0.00291145
  |                   6  -1      0.00093237
  |                   6   0     -0.00381356
  |                   6   1     -0.02246368
  |                   6   2     -0.03937590
  |                   6   3      0.01281270
  |                   6   4     -0.01152686
  |                   6   5     -0.03603296
  |                   6   6     -0.02828778
  |
  | Atom         2:   l   m          moment
  |                   0   0      0.01309435
  |                   1  -1      0.00203862
  |                   1   0      0.00410482
  |                   1   1      0.00433546
  |                   2  -2      0.00377438
  |                   2  -1     -0.00794403
  |                   2   0     -0.00212461
  |                   2   1     -0.00620192
  |                   2   2      0.00075777
  |                   3  -3     -0.00370377
  |                   3  -2      0.00529615
  |                   3  -1     -0.00643067
  |                   3   0      0.00356812
  |                   3   1     -0.00637566
  |                   3   2     -0.00343656
  |                   3   3      0.00291328
  |                   4  -4      0.00396062
  |                   4  -3     -0.00272479
  |                   4  -2     -0.01178831
  |                   4  -1      0.00199985
  |                   4   0     -0.01520358
  |                   4   1      0.00094601
  |                   4   2     -0.00510372
  |                   4   3     -0.01145512
  |                   4   4     -0.00391880
  |                   5  -5     -0.01036344
  |                   5  -4      0.00333301
  |                   5  -3      0.01860516
  |                   5  -2     -0.03029648
  |                   5  -1     -0.00256659
  |                   5   0     -0.04107375
  |                   5   1     -0.02171774
  |                   5   2     -0.00103113
  |                   5   3     -0.00067089
  |                   5   4     -0.03395740
  |                   5   5     -0.00931351
  |                   6  -6      0.01299261
  |                   6  -5      0.04343175
  |                   6  -4     -0.05563370
  |                   6  -3      0.03938805
  |                   6  -2     -0.01288742
  |                   6  -1      0.07011282
  |                   6   0      0.01133024
  |                   6   1      0.02552104
  |                   6   2     -0.02918638
  |                   6   3      0.05890670
  |                   6   4     -0.00360715
  |                   6   5     -0.03349060
  |                   6   6     -0.01917095
  |
  | Atom         3:   l   m          moment
  |                   0   0      0.01578222
  |                   1  -1     -0.01035369
  |                   1   0     -0.00074169
  |                   1   1      0.00223374
  |                   2  -2     -0.00170460
  |                   2  -1     -0.00059214
  |                   2   0      0.00220775
  |                   2   1      0.00006286
  |                   2   2      0.00383724
  |                   3  -3     -0.00536469
  |                   3  -2      0.00121757
  |                   3  -1     -0.00550315
  |                   3   0      0.00024201
  |                   3   1     -0.00121952
  |                   3   2     -0.00296299
  |                   3   3      0.00328032
  |                   4  -4     -0.00674951
  |                   4  -3     -0.00464104
  |                   4  -2     -0.00252792
  |                   4  -1     -0.00193700
  |                   4   0      0.00149027
  |                   4   1     -0.00129440
  |                   4   2      0.00504529
  |                   4   3     -0.00163030
  |                   4   4      0.00569880
  |                   5  -5     -0.01532425
  |                   5  -4      0.01571171
  |                   5  -3     -0.02184973
  |                   5  -2     -0.00318740
  |                   5  -1     -0.02154347
  |                   5   0     -0.00690996
  |                   5   1     -0.00443660
  |                   5   2     -0.00405476
  |                   5   3     -0.00009676
  |                   5   4     -0.01814574
  |                   5   5      0.02096129
  |                   6  -6     -0.02133175
  |                   6  -5     -0.02211494
  |                   6  -4     -0.03231377
  |                   6  -3     -0.00370910
  |                   6  -2     -0.00988740
  |                   6  -1     -0.00762357
  |                   6   0     -0.02070871
  |                   6   1     -0.02469064
  |                   6   2     -0.02430522
[...]
  |   Hirshfeld second moments:      0.00213402       0.00813076      -0.01347763
  |                                  0.00813076       0.05526062      -0.01455133
  |                                 -0.01347763      -0.01455133       0.08736168
  ----------------------------------------------------------------------
  | Atom     8: H
  |   Hirshfeld charge        :      0.11485733
  |   Free atom volume        :     10.31539447
  |   Hirshfeld volume        :      7.36109259
  |   Hirshfeld dipole vector :      0.01654740       0.04716172      -0.02158923
  |   Hirshfeld dipole moment :      0.05444391
  |   Hirshfeld second moments:      0.07027727      -0.03097623       0.00990636
  |                                 -0.03097623       0.06762573       0.00754392
  |                                  0.00990636       0.00754392       0.11064108
  ----------------------------------------------------------------------
  | Atom     9: H
  |   Hirshfeld charge        :      0.15996595
  |   Free atom volume        :     10.31539447
  |   Hirshfeld volume        :      6.35876639
  |   Hirshfeld dipole vector :      0.00432524      -0.02011778       0.11580167
  |   Hirshfeld dipole moment :      0.11761573
  |   Hirshfeld second moments:      0.10728770       0.00032648      -0.01613119
  |                                  0.00032648       0.12533209      -0.01235348
  |                                 -0.01613119      -0.01235348       0.10967948
  ----------------------------------------------------------------------
  | Atom    10: O
  |   Hirshfeld charge        :     -0.26967007
  |   Free atom volume        :     23.74229847
  |   Hirshfeld volume        :     20.42395496
  |   Hirshfeld dipole vector :      0.00907131       0.02288785      -0.01629107
  |   Hirshfeld dipole moment :      0.02952188
  |   Hirshfeld second moments:      0.02043204      -0.02229301       0.00109940
  |                                 -0.02229301       0.06336748       0.02321243
  |                                  0.00109940       0.02321243       0.07799593
  ----------------------------------------------------------------------
  | Atom    11: H
  |   Hirshfeld charge        :      0.16823732
  |   Free atom volume        :     10.31539447
  |   Hirshfeld volume        :      5.56996700
  |   Hirshfeld dipole vector :     -0.02326528       0.10495525       0.07285215
  |   Hirshfeld dipole moment :      0.12986267
  |   Hirshfeld second moments:      0.12280896      -0.00429628       0.00302900
  |                                 -0.00429628       0.12717096      -0.00437583
  |                                  0.00302900      -0.00437583       0.14196363
  ----------------------------------------------------------------------
  | Atom    12: H
  |   Hirshfeld charge        :      0.11807668
  |   Free atom volume        :     10.31539447
  |   Hirshfeld volume        :      7.20009312
  |   Hirshfeld dipole vector :     -0.00506498       0.02194439      -0.04544133
  |   Hirshfeld dipole moment :      0.05071612
  |   Hirshfeld second moments:      0.09941574      -0.00706006      -0.00738386
  |                                 -0.00706006       0.11308630       0.01746873
  |                                 -0.00738386       0.01746873       0.04293523
  ----------------------------------------------------------------------
  | Atom    13: O
  |   Hirshfeld charge        :     -0.25680181
  |   Free atom volume        :     23.74229847
  |   Hirshfeld volume        :     20.18943964
  |   Hirshfeld dipole vector :      0.02175621       0.00048432      -0.01239163
  |   Hirshfeld dipole moment :      0.02504236
  |   Hirshfeld second moments:      0.05028389      -0.01626120      -0.00288412
  |                                 -0.01626120       0.07343017      -0.02524523
  |                                 -0.00288412      -0.02524523       0.06293230
  ----------------------------------------------------------------------
  | Atom    14: H
  |   Hirshfeld charge        :      0.11523140
  |   Free atom volume        :     10.31539447
  |   Hirshfeld volume        :      7.24186679
  |   Hirshfeld dipole vector :      0.04194253      -0.00821376      -0.01417058
  |   Hirshfeld dipole moment :      0.04502718
  |   Hirshfeld second moments:      0.05839059       0.02993902       0.00806722
  |                                  0.02993902       0.08340242      -0.01401268
  |                                  0.00806722      -0.01401268       0.11014448
  ----------------------------------------------------------------------
  | Atom    15: H
  |   Hirshfeld charge        :      0.17165875
  |   Free atom volume        :     10.31539447
  |   Hirshfeld volume        :      5.47422615
  |   Hirshfeld dipole vector :     -0.00767968       0.09913961      -0.08143026
  |   Hirshfeld dipole moment :      0.12852442
  |   Hirshfeld second moments:      0.13958092      -0.00648642      -0.00390444
  |                                 -0.00648642       0.13137770       0.00102712
  |                                 -0.00390444       0.00102712       0.12935969
  ----------------------------------------------------------------------
  | Atom    16: O
  |   Hirshfeld charge        :     -0.24909712
  |   Free atom volume        :     23.74229847
  |   Hirshfeld volume        :     20.43049260
  |   Hirshfeld dipole vector :     -0.02080405       0.00007400       0.01070338
  |   Hirshfeld dipole moment :      0.02339608
  |   Hirshfeld second moments:      0.04742420       0.01361511       0.01777340
  |                                  0.01361511       0.06137806       0.00057832
  |                                  0.01777340       0.00057832       0.07371469
  ----------------------------------------------------------------------
  | Atom    17: H
  |   Hirshfeld charge        :      0.12139005
  |   Free atom volume        :     10.31539447
  |   Hirshfeld volume        :      7.29654206
  |   Hirshfeld dipole vector :     -0.03236452      -0.04148530      -0.02037690
  |   Hirshfeld dipole moment :      0.05642438
  |   Hirshfeld second moments:      0.06409853      -0.02712771      -0.01078580
  |                                 -0.02712771       0.08722062      -0.01050696
  |                                 -0.01078580      -0.01050696       0.10564637
  ----------------------------------------------------------------------
  | Atom    18: H
  |   Hirshfeld charge        :      0.11831342
  |   Free atom volume        :     10.31539447
  |   Hirshfeld volume        :      7.31825302
  |   Hirshfeld dipole vector :      0.01601279      -0.01179061       0.04550034
  |   Hirshfeld dipole moment :      0.04965590
  |   Hirshfeld second moments:      0.10502105       0.00376954      -0.00490570
  |                                  0.00376954       0.10807756       0.00695526
  |                                 -0.00490570       0.00695526       0.03678248
  ----------------------------------------------------------------------
  | Atom    19: O
  |   Hirshfeld charge        :     -0.24699462
  |   Free atom volume        :     23.74229847
  |   Hirshfeld volume        :     20.35770759
  |   Hirshfeld dipole vector :     -0.00015117      -0.01389917      -0.01269785
  |   Hirshfeld dipole moment :      0.01882672
  |   Hirshfeld second moments:      0.06259388      -0.01784168       0.00270647
  |                                 -0.01784168       0.06082542      -0.01504135
  |                                  0.00270647      -0.01504135       0.06631181
  ----------------------------------------------------------------------
  | Atom    20: H
  |   Hirshfeld charge        :      0.12384970
  |   Free atom volume        :     10.31539447
  |   Hirshfeld volume        :      7.18177626
  |   Hirshfeld dipole vector :     -0.01965970       0.03258386      -0.03910796
  |   Hirshfeld dipole moment :      0.05456779
  |   Hirshfeld second moments:      0.11228324      -0.00591354      -0.00699738
  |                                 -0.00591354       0.09874041       0.02431266
  |                                 -0.00699738       0.02431266       0.04887001
  ----------------------------------------------------------------------
  | Atom    21: H
  |   Hirshfeld charge        :      0.11577775
  |   Free atom volume        :     10.31539447
  |   Hirshfeld volume        :      7.47021823
  |   Hirshfeld dipole vector :      0.03832963      -0.02847969      -0.00624820
  |   Hirshfeld dipole moment :      0.04815904
  |   Hirshfeld second moments:      0.07728628       0.02938252       0.00993939
  |                                  0.02938252       0.06640641      -0.01065446
  |                                  0.00993939      -0.01065446       0.10160944
  ----------------------------------------------------------------------
  | Atom    22: O
  |   Hirshfeld charge        :     -0.27212752
  |   Free atom volume        :     23.74229847
  |   Hirshfeld volume        :     20.58314573
  |   Hirshfeld dipole vector :      0.00998104       0.02870442       0.00713292
  |   Hirshfeld dipole moment :      0.03121607
  |   Hirshfeld second moments:      0.06448459      -0.03497448       0.02255329
  |                                 -0.03497448       0.01997898       0.00433751
  |                                  0.02255329       0.00433751       0.06551095
  ----------------------------------------------------------------------
  | Atom    23: H
  |   Hirshfeld charge        :      0.11383661
  |   Free atom volume        :     10.31539447
  |   Hirshfeld volume        :      7.27576273
  |   Hirshfeld dipole vector :     -0.03118098       0.03476177       0.01946211
  |   Hirshfeld dipole moment :      0.05059059
  |   Hirshfeld second moments:      0.07989367       0.02622786       0.01928788
  |                                  0.02622786       0.05736282      -0.00939536
  |                                  0.01928788      -0.00939536       0.11083148
  ----------------------------------------------------------------------
  | Atom    24: H
  |   Hirshfeld charge        :      0.16564761
  |   Free atom volume        :     10.31539447
  |   Hirshfeld volume        :      5.67222582
  |   Hirshfeld dipole vector :      0.09366584      -0.01101698       0.08932637
  |   Hirshfeld dipole moment :      0.12989943
  |   Hirshfeld second moments:      0.12876834      -0.01229666      -0.00328379
  |                                 -0.01229666       0.12689044       0.00499060
  |                                 -0.00328379       0.00499060       0.12974085
  ----------------------------------------------------------------------
  | Atom    25: O
  |   Hirshfeld charge        :     -0.29160491
  |   Free atom volume        :     23.74229847
  |   Hirshfeld volume        :     21.24827747
  |   Hirshfeld dipole vector :      0.01457683       0.01748557       0.05154037
  |   Hirshfeld dipole moment :      0.05634393
  |   Hirshfeld second moments:      0.01775894      -0.01252330      -0.01586550
  |                                 -0.01252330       0.06997839      -0.01979418
  |                                 -0.01586550      -0.01979418       0.00867607
  ----------------------------------------------------------------------
  | Atom    26: H
  |   Hirshfeld charge        :      0.12630135
  |   Free atom volume        :     10.31539447
  |   Hirshfeld volume        :      7.20875931
  |   Hirshfeld dipole vector :     -0.03286205       0.06783894       0.02613706
  |   Hirshfeld dipole moment :      0.07978208
  |   Hirshfeld second moments:      0.10224126      -0.00694399      -0.00805726
  |                                 -0.00694399       0.06140870      -0.02720115
  |                                 -0.00805726      -0.02720115       0.10421840
  ----------------------------------------------------------------------
  | Atom    27: H
  |   Hirshfeld charge        :      0.11251824
  |   Free atom volume        :     10.31539447
  |   Hirshfeld volume        :      7.31534820
  |   Hirshfeld dipole vector :     -0.00427489      -0.03965688       0.04607892
  |   Hirshfeld dipole moment :      0.06094431
  |   Hirshfeld second moments:      0.09997309      -0.00695132      -0.00757626
  |                                 -0.00695132       0.09267437       0.03449664
  |                                 -0.00757626       0.03449664       0.05827084
  ----------------------------------------------------------------------


------------------------------------------------------------------------------
  Final output of selected total energy values:

  The following output summarizes some interesting total energy values
  at the end of a run (AFTER all relaxation, molecular dynamics, etc.).

  | Total energy of the DFT / Hartree-Fock s.c.f. calculation      :         -18731.470673889 eV
  | Final zero-broadening corrected energy (caution - metals only) :         -18731.470673889 eV
  | For reference only, the value of 1 Hartree used in FHI-aims is :             27.211384500 eV

  Before relying on these values, please be sure to understand exactly which
  total energy value is referred to by a given number. Different objects may
  all carry the same name 'total energy'. Definitions:

  Total energy of the DFT / Hartree-Fock s.c.f. calculation:
  | Note that this energy does not include ANY quantities calculated after the
  | s.c.f. cycle, in particular not ANY RPA, MP2, etc. many-body perturbation terms.

  Final zero-broadening corrected energy:
  | For metallic systems only, a broadening of the occupation numbers at the Fermi
  | level can be extrapolated back to zero broadening by an electron-gas inspired
  | formula. For all systems that are not real metals, this value can be
  | meaningless and should be avoided.

------------------------------------------------------------------------------
  Methods described in the following list of references were used in this FHI-aims run.
  If you publish the results, please make sure to cite these reference if they apply.
  FHI-aims is an academic code, and for our developers (often, Ph.D. students
  and postdocs), scientific credit in the community is essential.
  Thank you for helping us!

  For any use of FHI-aims, please cite:

    Volker Blum, Ralf Gehrke, Felix Hanke, Paula Havu, Ville Havu,
    Xinguo Ren, Karsten Reuter, and Matthias Scheffler
    'Ab initio molecular simulations with numeric atom-centered orbitals'
    Computer Physics Communications 180, 2175-2196 (2009)
    http://doi.org/10.1016/j.cpc.2009.06.022


  For Hartree-Fock, hybrid functionals, or many-body perturbation theory used in your run, please cite:

    Xinguo Ren, Patrick Rinke, Volker Blum, Juergen Wieferink, Alex Tkatchenko,
    Andrea Sanfilippo, Karsten Reuter, and Matthias Scheffler,
    'Resolution-of-identity approach to Hartree-Fock, hybrid density functionals,
    RPA, MP2, and GW with numeric atom-centered orbital basis functions'
    New Journal of Physics 14, 053020 (2012).
    http://doi.org/10.1088/1367-2630/14/5/053020


  The ELSI infrastructure was used in your run to solve the Kohn-Sham electronic structure.
  Please check out http://elsi-interchange.org to learn more.
  If scalability is important for your project, please acknowledge ELSI by citing:

    V. W-z. Yu, F. Corsetti, A. Garcia, W. P. Huhn, M. Jacquelin, W. Jia,
    B. Lange, L. Lin, J. Lu, W. Mi, A. Seifitokaldani, A. Vazquez-Mayagoitia,
    C. Yang, H. Yang, and V. Blum
    'ELSI: A unified software interface for Kohn-Sham electronic structure solvers'
    Computer Physics Communications 222, 267-285 (2018).
    http://doi.org/10.1016/j.cpc.2017.09.007


  For the real-space grid partitioning and parallelization used in this calculation, please cite:

    Ville Havu, Volker Blum, Paula Havu, and Matthias Scheffler,
    'Efficient O(N) integration for all-electron electronic structure calculation'
    'using numerically tabulated basis functions'
    Journal of Computational Physics 228, 8367-8379 (2009).
    http://doi.org/10.1016/j.jcp.2009.08.008


  The high-level electronic structure method used in your calculation
  employed our efficient localized resolution of identity for the Coulomb operator.
  Some calculations, especially large-scale hybrid density functional theory,
  are only possible thanks to this development. For this feature, please cite:

    Arvid Ihrig, Juergen Wieferink, Igor Ying Zhang, Matti Ropo, Xinguo Ren,
    Patrick Rinke, Matthias Scheffler, and Volker Blum,
    'Accurate localized resolution of identity approach for linear-scaling
    hybrid density functionals and for many-body perturbation theory'
    New Journal of Physics 117, 093020 (2015).
    http://doi.org/10.1088/1367-2630/17/9/093020

  Of course, there are many other important community references, e.g., those cited in the
  above references. Our list is limited to references that describe implementations in the
  FHI-aims code. The reason is purely practical (length of this list) - please credit others as well.

------------------------------------------------------------
          Leaving FHI-aims.
          Date     :  20240806, Time     :  203051.992

          Computational steps:
          | Number of self-consistency cycles          :           20
          | Number of SCF (re)initializations          :            1

          Detailed time accounting                     :  max(cpu_time)    wall_clock(cpu1)
          | Total time                                  :      198.450 s         198.469 s
          | Preparation time                            :        0.113 s           0.113 s
          | Boundary condition initalization            :        0.003 s           0.003 s
          | Grid partitioning                           :        0.228 s           0.228 s
          | Preloading free-atom quantities on grid     :        0.561 s           0.560 s
          | Free-atom superposition energy              :        0.085 s           0.085 s
          | Total time for integrations                 :       19.890 s          19.890 s
          | Product basis setup: Total time             :       38.981 s          38.983 s
          | Total time evaluating exchange matrix       :      110.767 s         110.767 s
          | Total time for solution of K.-S. equations  :        0.508 s           0.509 s
          | Total time for density & force components   :       16.989 s          16.990 s
          | Total time for mixing                       :        0.312 s           0.312 s
          | Total time for Hartree multipole update     :        0.223 s           0.225 s
          | Total time for Hartree multipole sum        :        7.861 s           7.859 s
          | Total time for total energy evaluation      :        0.001 s           0.001 s
          | Total time NSC force correction             :        1.649 s           1.649 s
          | Total time for scaled ZORA corrections      :        0.000 s           0.000 s

          Partial memory accounting:
          | Residual value for overall tracked memory usage across tasks:     0.000000 MB (should be 0.000000 MB)
          | Peak values for overall tracked memory usage:
          |   Minimum:      645.817 MB (on task 4 after allocating hessian_basis_wave)
          |   Maximum:      895.697 MB (on task 7 after allocating ovlp3fn2%n)
          |   Average:      738.059 MB
          | Largest tracked array allocation:
          |   Minimum:      149.669 MB (ovlp3fn2%dat on task 2)
          |   Maximum:      198.613 MB (ovlp3fn2%dat on task 3)
          |   Average:      168.306 MB
          Note:  These values currently only include a subset of arrays which are explicitly tracked.
          The "true" memory usage will be greater.

          Have a nice day.
------------------------------------------------------------
---------
