------------------------------------------------------------
          Invoking FHI-aims ...

          When using FHI-aims, please cite the following reference:

            Volker Blum, Ralf Gehrke, Felix Hanke, Paula Havu,
            Ville Havu, Xinguo Ren, Karsten Reuter, and Matthias Scheffler,
            'Ab Initio Molecular Simulations with Numeric Atom-Centered Orbitals',
            Computer Physics Communications 180, 2175-2196 (2009)

          In addition, many other developments in FHI-aims are likely important for
          your particular application. If so, please cite them. A partial list of references
          is written at the end of this file. Thank you for giving credit to the authors
          of these developments.

          For general information about FHI-aims please find us at

            https://fhi-aims.org

          Online tutorials can be found at

            https://fhi-aims-club.gitlab.io/tutorials/tutorials-overview/

          For any questions about FHI-aims, please visit our slack channel at

            https://fhi-aims.slack.com

          and our main development and support site at

            https://aims-git.rz-berlin.mpg.de .

          The latter site, in particular, has a wiki to collect information, as well
          as an issue tracker to log discussions, suggest improvements, and report issues
          or bugs. https://aims-git.rz-berlin.mpg.de is also the main development site
          of the project and all new and updated code versions can be obtained there.
          Please send an email to aims-coordinators@fhi-berlin.mpg.de and we will add
          you to these sites. They are for you and everyone is welcome there.

------------------------------------------------------------



  Date     :  20240806, Time     :  201016.510
  Time zero on CPU 1             :   0.265234000000000E+00  s.
  Internal wall clock time zero  :           492207016.510  s.

  FHI-aims created a unique identifier for this run for later identification
  aims_uuid : 4AA9796A-C3A7-4F6E-A590-B7BA61EB1ED2

  Build configuration of the current instance of FHI-aims
  -------------------------------------------------------
  FHI-aims version      : 231212.1
  Commit number         : GITDIR-NOTFOUND
  CMake host system     : Linux-5.14.21-150500.55.52-default
  CMake version         : 3.20.4
  Fortran compiler      : /mpcdf/soft/SLE_15/packages/x86_64/intel_oneapi/2021.4/mpi/2021.4.0/bin/mpiifort (Intel) version 2021.4.0.20210910
  Fortran compiler flags: -O3 -fp-model precise -xCORE-AVX512 -qopt-zmm-usage=high
  C compiler            : /mpcdf/soft/SLE_15/packages/x86_64/intel_oneapi/2021.4/mpi/2021.4.0/bin/mpiicc (Intel) version 2021.4.0.20210910
  C compiler flags      : -O3 -ip -fp-model precise -std=gnu99 -xCORE-AVX512 -qopt-zmm-usage=high -no-multibyte-chars
  C++ compiler          : /mpcdf/soft/SLE_15/packages/x86_64/intel_oneapi/2021.4/mpi/2021.4.0/bin/mpiicpc (Intel) version 2021.4.0.20210910
  C++ compiler flags    : -O3 -fp-model precise -xCORE-AVX512 -qopt-zmm-usage=high
  HIP compiler          :
  HIP compiler flags    :
  HIP GPU arch          :
  Using MPI
  Using ScaLAPACK
  Using LibXC
  Using i-PI
  Using RLSY
  Linking against: /mpcdf/soft/SLE_15/packages/x86_64/intel_oneapi/2021.4/mkl/latest/lib/intel64/libmkl_intel_lp64.so
                   /mpcdf/soft/SLE_15/packages/x86_64/intel_oneapi/2021.4/mkl/latest/lib/intel64/libmkl_sequential.so
                   /mpcdf/soft/SLE_15/packages/x86_64/intel_oneapi/2021.4/mkl/latest/lib/intel64/libmkl_core.so
                   /mpcdf/soft/SLE_15/packages/x86_64/intel_oneapi/2021.4/mkl/latest/lib/intel64/libmkl_blacs_intelmpi_lp64.so
                   /mpcdf/soft/SLE_15/packages/x86_64/intel_oneapi/2021.4/mkl/latest/lib/intel64/libmkl_scalapack_lp64.so

  Using        8 parallel tasks.
  Task        0 on host ravc3445 reporting.
  Task        1 on host ravc3445 reporting.
  Task        2 on host ravc3445 reporting.
  Task        3 on host ravc3445 reporting.
  Task        4 on host ravc3445 reporting.
  Task        5 on host ravc3445 reporting.
  Task        6 on host ravc3445 reporting.
  Task        7 on host ravc3445 reporting.

  Memory overcommitment is allowed on your operating system.

  Obtaining array dimensions for all initial allocations:
  
  -----------------------------------------------------------------------
  Parsing control.in (first pass over file, find array dimensions only).
  The contents of control.in will be repeated verbatim below
  unless switched off by setting 'verbatim_writeout .false.' .
  in the first line of control.in .
  -----------------------------------------------------------------------
  
  #===============================================================================
  # FHI-aims file: ./control.in
  # Created using the Atomic Simulation Environment (ASE)
  # Tue Aug  6 19:54:06 2024
  #===============================================================================
  output                             hirshfeld
  output                             hartree_multipoles
  xc                                 pbe0
  relativistic                       atomic_zora scalar
  compute_forces                     .true.
  override_illconditioning           .true.
  #===============================================================================
  
  ################################################################################
  #
  #  FHI-aims code project
  #  Volker Blum, Fritz Haber Institute Berlin, 2009
  #
  #  Suggested "tight" defaults for O atom (to be pasted into control.in file)
  #
  ################################################################################
    species        O
  #     global species definitions
      nucleus             8
      mass                15.9994
  #
      l_hartree           6
  #
      cut_pot             4.0  2.0  1.0
      basis_dep_cutoff    1e-4
  #
      radial_base         36 7.0
      radial_multiplier   2
       angular_grids specified
        division   0.1817   50
        division   0.3417  110
        division   0.4949  194
        division   0.6251  302
        division   0.8014  434
  #      division   0.8507  590
  #      division   0.8762  770
  #      division   0.9023  974
  #      division   1.2339 1202
  #      outer_grid 974
        outer_grid  434
  ################################################################################
  #
  #  Definition of "minimal" basis
  #
  ################################################################################
  #     valence basis states
      valence      2  s   2.
      valence      2  p   4.
  #     ion occupancy
      ion_occ      2  s   1.
      ion_occ      2  p   3.
  ################################################################################
  #
  #  Suggested additional basis functions. For production calculations,
  #  uncomment them one after another (the most important basis functions are
  #  listed first).
  #
  #  Constructed for dimers: 1.0 A, 1.208 A, 1.5 A, 2.0 A, 3.0 A
  #
  ################################################################################
  #  "First tier" - improvements: -699.05 meV to -159.38 meV
       hydro 2 p 1.8
       hydro 3 d 7.6
       hydro 3 s 6.4
  #  "Second tier" - improvements: -49.91 meV to -5.39 meV
       hydro 4 f 11.6
       hydro 3 p 6.2
       hydro 3 d 5.6
       hydro 5 g 17.6
       hydro 1 s 0.75
  #  "Third tier" - improvements: -2.83 meV to -0.50 meV
  #     ionic 2 p auto
  #     hydro 4 f 10.8
  #     hydro 4 d 4.7
  #     hydro 2 s 6.8
  #  "Fourth tier" - improvements: -0.40 meV to -0.12 meV
  #     hydro 3 p 5
  #     hydro 3 s 3.3
  #     hydro 5 g 15.6
  #     hydro 4 f 17.6
  #     hydro 4 d 14
  # Further basis functions - -0.08 meV and below
  #     hydro 3 s 2.1
  #     hydro 4 d 11.6
  #     hydro 3 p 16
  #     hydro 2 s 17.2
  ################################################################################
  #
  # For methods that use the localized form of the "resolution of identity" for
  # the two-electron Coulomb operator (RI_method LVL), particularly Hartree-Fock and
  # hybrid density functional calculations, the highest accuracy can be obtained by
  # uncommenting the line beginning with "for_aux"  below, thus adding an extra g radial
  # function to the construction of the product basis set for the expansion.
  # See Ref. New J. Phys. 17, 093020 (2015) for more information, particularly Figs. 1 and 6.
  #
  ################################################################################
  #
  # for_aux hydro 5 g 6.0
  ################################################################################
  #
  #  FHI-aims code project
  #  Volker Blum, Fritz Haber Institute Berlin, 2009
  #
  #  Suggested "tight" defaults for H atom (to be pasted into control.in file)
  #
  ################################################################################
    species        H
  #     global species definitions
      nucleus             1
      mass                1.00794
  #
      l_hartree           6
  #
      cut_pot             4.0  2.0  1.0
      basis_dep_cutoff    1e-4
  #
      radial_base         24 7.0
      radial_multiplier   2
      angular_grids       specified
        division   0.1930   50
        division   0.3175  110
        division   0.4293  194
        division   0.5066  302
        division   0.5626  434
  #      division   0.5922  590
  #      division   0.6227  974
  #      division   0.6868 1202
  #      outer_grid  770
        outer_grid  434
  ################################################################################
  #
  #  Definition of "minimal" basis
  #
  ################################################################################
  #     valence basis states
      valence      1  s   1.
  #     ion occupancy
      ion_occ      1  s   0.5
  ################################################################################
  #
  #  Suggested additional basis functions. For production calculations,
  #  uncomment them one after another (the most important basis functions are
  #  listed first).
  #
  #  Basis constructed for dimers: 0.5 A, 0.7 A, 1.0 A, 1.5 A, 2.5 A
  #
  ################################################################################
  #  "First tier" - improvements: -1014.90 meV to -62.69 meV
       hydro 2 s 2.1
       hydro 2 p 3.5
  #  "Second tier" - improvements: -12.89 meV to -1.83 meV
       hydro 1 s 0.85
       hydro 2 p 3.7
       hydro 2 s 1.2
       hydro 3 d 7
  #  "Third tier" - improvements: -0.25 meV to -0.12 meV
  #     hydro 4 f 11.2
  #     hydro 3 p 4.8
  #     hydro 4 d 9
  #     hydro 3 s 3.2
  ################################################################################
  #
  # For methods that use the localized form of the "resolution of identity" for
  # the two-electron Coulomb operator (RI_method LVL), particularly Hartree-Fock and
  # hybrid density functional calculations, the highest accuracy can be obtained by
  # uncommenting the line beginning with "for_aux"  below, thus adding an extra g radial
  # function to the construction of the product basis set for the expansion.
  # See Ref. New J. Phys. 17, 093020 (2015) for more information, particularly Figs. 1 and 6.
  #
  ################################################################################
  #
  # for_aux hydro 5 g 6.0
  
  -----------------------------------------------------------------------
  Completed first pass over input file control.in .
  -----------------------------------------------------------------------
  
  
  -----------------------------------------------------------------------
  Parsing geometry.in (first pass over file, find array dimensions only).
  The contents of geometry.in will be repeated verbatim below
  unless switched off by setting 'verbatim_writeout .false.' .
  in the first line of geometry.in .
  -----------------------------------------------------------------------
  
  #=======================================================
  # FHI-aims file: ./geometry.in
  # Created using the Atomic Simulation Environment (ASE)
  # Tue Aug  6 19:54:06 2024
  #=======================================================
  atom 0.1408474600000000 2.8259061200000000 -1.3100610800000001 O
  atom -0.2614829400000000 3.0553792199999998 -0.4699884800000000 H
  atom -0.3550002400000000 2.0481055200000000 -1.6091380799999999 H
  atom -1.0445830400000000 0.3069432200000000 -1.5418887800000001 O
  atom -0.2802741400000000 -0.2740885800000000 -1.6258264800000000 H
  atom -1.8125083399999999 -0.2672907800000000 -1.4083943800000001 H
  atom 1.7211048600000001 0.5453694200000000 1.9698662199999999 O
  atom 1.5353443600000001 -0.3888060800000000 1.7865356200000000 H
  atom 2.0648968600000002 0.5880969200000000 2.8591484199999999 H
  atom -1.7324073400000000 -1.3891474800000001 1.6296448200000000 O
  atom -1.6164538399999999 -0.4282995800000000 1.6542009200000001 H
  atom -0.8440101400000000 -1.7423197800000001 1.5124668200000000 H
  atom 1.4243938599999999 -1.1871706799999999 -1.5258679799999999 O
  atom 1.8463833599999999 -0.3317419800000000 -1.3205676799999999 H
  atom 1.7965366599999999 -1.4925943800000001 -2.3486524800000002 H
  atom 2.3653271600000001 1.2103951200000000 -0.7385640800000000 O
  atom 1.7116558600000000 1.8794568199999999 -0.9893947800000000 H
  atom 2.3096325599999998 1.1300452200000000 0.2213577200000000 H
  atom 1.0706951600000001 -2.0434233800000001 1.0861667200000000 O
  atom 1.1697781599999999 -1.8417650800000001 0.1410297200000000 H
  atom 1.4165203600000000 -2.9233232800000000 1.2165302200000001 H
  atom -3.0429732399999998 -1.4435144799999999 -0.8021321800000000 O
  atom -3.9899432400000001 -1.4933573800000000 -0.7003694800000000 H
  atom -2.6727225400000001 -1.5216375799999999 0.0930780200000000 H
  atom -0.9647281400000000 1.2894300200000000 1.1850256200000000 O
  atom -0.9757030400000000 0.9969399200000000 0.2625412200000000 H
  atom -0.0534541400000000 1.1852849200000000 1.4842962200000001 H
  
  -----------------------------------------------------------------------
  Completed first pass over input file geometry.in .
  -----------------------------------------------------------------------
  

  Basic array size parameters:
  | Number of species                 :        2
  | Number of atoms                   :       27
  | Max. basis fn. angular momentum   :        4
  | Max. atomic/ionic basis occupied n:        2
  | Max. number of basis fn. types    :        2
  | Max. radial fns per species/type  :        8
  | Max. logarithmic grid size        :     1301
  | Max. radial integration grid size :       73
  | Max. angular integration grid size:      434
  | Max. angular grid division number :        8
  | Radial grid for Hartree potential :     1301
  | Number of spin channels           :        1

------------------------------------------------------------
          Reading file control.in.
------------------------------------------------------------
  Hirshfeld charge analysis will be performed.
  All multipole moments of the Hartree potential will be written out.
  XC: Using hybrid-PBE0 functionals.
  Scalar relativistic treatment of kinetic energy: on-site free-atom approximation to ZORA.
  Forces will be computed.
  override_illconditioning: Explicitly overriding any built-in checks for an ill-conditioned overlap matrix.
  *** WARNING: If you use this flag, you should really know what you are doing.
  *** DO NOT keep this flag set by default in all your control.in files.
 
  Reading configuration options for species O                   .
  | Found nuclear charge :   8.0000
  | Found atomic mass :    15.9994000000000      amu
  | Found l_max for Hartree potential  :   6
  | Found cutoff potl. onset [A], width [A], scale factor :    4.00000    2.00000    1.00000
  | Threshold for basis-dependent cutoff potential is   0.100000E-03
  | Found data for basic radial integration grid :    36 points, outermost radius =    7.000 A
  | Found multiplier for basic radial grid :   2
  | Found angular grid specification: user-specified.
  | Specified grid contains     6 separate shells.
  | Check grid settings after all constraints further below.
  | Found free-atom valence shell :  2 s   2.000
  | Found free-atom valence shell :  2 p   4.000
  | No ionic wave fns used. Skipping ion_occ.
  | No ionic wave fns used. Skipping ion_occ.
  | Found hydrogenic basis function :  2 p   1.800
  | Found hydrogenic basis function :  3 d   7.600
  | Found hydrogenic basis function :  3 s   6.400
  | Found hydrogenic basis function :  4 f  11.600
  | Found hydrogenic basis function :  3 p   6.200
  | Found hydrogenic basis function :  3 d   5.600
  | Found hydrogenic basis function :  5 g  17.600
  | Found hydrogenic basis function :  1 s   0.750
 | Encountered keyword species, ending the description of species O                   .
  Species O                   : Missing cutoff potential type.
  Defaulting to exp(1/x)/(1-x)^2 type cutoff potential.
  Species O : No 'logarithmic' tag. Using default grid for free atom:
  | Default logarithmic grid data [bohr] : 0.1000E-03 0.1000E+03 0.1012E+01
  Species O : On-site basis accuracy parameter (for Gram-Schmidt orthonormalisation) not specified.
  Using default value basis_acc =  0.1000000E-03.
  Species O                   : Using default innermost maximum threshold i_radial=  2 for radial functions.
  Species O                   : Default cutoff onset for free atom density etc. : 0.40000000E+01 AA.
  Species O                   : Basic radial grid will be enhanced according to radial_multiplier =   2, to contain    73 grid points.
 
  Reading configuration options for species H                   .
  | Found nuclear charge :   1.0000
  | Found atomic mass :    1.00794000000000      amu
  | Found l_max for Hartree potential  :   6
  | Found cutoff potl. onset [A], width [A], scale factor :    4.00000    2.00000    1.00000
  | Threshold for basis-dependent cutoff potential is   0.100000E-03
  | Found data for basic radial integration grid :    24 points, outermost radius =    7.000 A
  | Found multiplier for basic radial grid :   2
  | Found angular grid specification: user-specified.
  | Specified grid contains     6 separate shells.
  | Check grid settings after all constraints further below.
  | Found free-atom valence shell :  1 s   1.000
  | No ionic wave fns used. Skipping ion_occ.
  | Found hydrogenic basis function :  2 s   2.100
  | Found hydrogenic basis function :  2 p   3.500
  | Found hydrogenic basis function :  1 s   0.850
  | Found hydrogenic basis function :  2 p   3.700
  | Found hydrogenic basis function :  2 s   1.200
  | Found hydrogenic basis function :  3 d   7.000
  Species H                   : Missing cutoff potential type.
  Defaulting to exp(1/x)/(1-x)^2 type cutoff potential.
  Species H : No 'logarithmic' tag. Using default grid for free atom:
  | Default logarithmic grid data [bohr] : 0.1000E-03 0.1000E+03 0.1012E+01
  Species H : On-site basis accuracy parameter (for Gram-Schmidt orthonormalisation) not specified.
  Using default value basis_acc =  0.1000000E-03.
  Species H                   : Using default innermost maximum threshold i_radial=  2 for radial functions.
  Species H                   : Default cutoff onset for free atom density etc. : 0.40000000E+01 AA.
  Species H                   : Basic radial grid will be enhanced according to radial_multiplier =   2, to contain    49 grid points.
 
  Finished reading input file 'control.in'.
 
------------------------------------------------------------


------------------------------------------------------------
          Reading geometry description geometry.in.
------------------------------------------------------------
  | The smallest distance between any two atoms is         0.95328287 AA.
  | The first atom of this pair is atom number                     13 .
  | The second atom of this pair is atom number                    15 .
  Input structure read successfully.
  The structure contains       27 atoms,  and a total of         90.000 electrons.

  Input geometry:
  | No unit cell requested.
  | Atomic structure:
  |       Atom                x [A]            y [A]            z [A]
  |    1: Species O             0.14084746        2.82590612       -1.31006108
  |    2: Species H            -0.26148294        3.05537922       -0.46998848
  |    3: Species H            -0.35500024        2.04810552       -1.60913808
  |    4: Species O            -1.04458304        0.30694322       -1.54188878
  |    5: Species H            -0.28027414       -0.27408858       -1.62582648
  |    6: Species H            -1.81250834       -0.26729078       -1.40839438
  |    7: Species O             1.72110486        0.54536942        1.96986622
  |    8: Species H             1.53534436       -0.38880608        1.78653562
  |    9: Species H             2.06489686        0.58809692        2.85914842
  |   10: Species O            -1.73240734       -1.38914748        1.62964482
  |   11: Species H            -1.61645384       -0.42829958        1.65420092
  |   12: Species H            -0.84401014       -1.74231978        1.51246682
  |   13: Species O             1.42439386       -1.18717068       -1.52586798
  |   14: Species H             1.84638336       -0.33174198       -1.32056768
  |   15: Species H             1.79653666       -1.49259438       -2.34865248
  |   16: Species O             2.36532716        1.21039512       -0.73856408
  |   17: Species H             1.71165586        1.87945682       -0.98939478
  |   18: Species H             2.30963256        1.13004522        0.22135772
  |   19: Species O             1.07069516       -2.04342338        1.08616672
  |   20: Species H             1.16977816       -1.84176508        0.14102972
  |   21: Species H             1.41652036       -2.92332328        1.21653022
  |   22: Species O            -3.04297324       -1.44351448       -0.80213218
  |   23: Species H            -3.98994324       -1.49335738       -0.70036948
  |   24: Species H            -2.67272254       -1.52163758        0.09307802
  |   25: Species O            -0.96472814        1.28943002        1.18502562
  |   26: Species H            -0.97570304        0.99693992        0.26254122
  |   27: Species H            -0.05345414        1.18528492        1.48429622

  Slab Identifier: This is not a periodic structure.
 
  Finished reading input file 'geometry.in'.
 

 
  Consistency checks for stacksize environment parameter are next.
 
  | Maximum stacksize for task 0: unlimited
  | Maximum stacksize for task 1: unlimited
  | Maximum stacksize for task 2: unlimited
  | Maximum stacksize for task 3: unlimited
  | Maximum stacksize for task 4: unlimited
  | Maximum stacksize for task 5: unlimited
  | Maximum stacksize for task 6: unlimited
  | Maximum stacksize for task 7: unlimited
  | Current stacksize for task 0: unlimited
  | Current stacksize for task 1: unlimited
  | Current stacksize for task 2: unlimited
  | Current stacksize for task 3: unlimited
  | Current stacksize for task 4: unlimited
  | Current stacksize for task 5: unlimited
  | Current stacksize for task 6: unlimited
  | Current stacksize for task 7: unlimited
 
  Consistency checks for the contents of control.in are next.
 
  MPI_IN_PLACE appears to work with this MPI implementation.
  | Keeping use_mpi_in_place .true. (see manual).
  Explicit treatment of the Coulomb operator is needed, but the RI method is not specified.
  Coulomb operator: Defaulting to 'LVL fast' resolution of identity - RI_type = LVL_fast
  Species O: Using default value for prodbas_acc =   1.000000E-04.
  Species O: Using default value max_l_prodbas =    20.
  Species H: Using default value for prodbas_acc =   1.000000E-04.
  Species H: Using default value max_l_prodbas =    20.
  Target number of points in a grid batch is not set. Defaulting to  100
  Method for grid partitioning is not set. Defaulting to parallel hash+maxmin partitioning.
  Batch size limit is not set. Defaulting to    200
  By default, will store active basis functions for each batch.
  If in need of memory, prune_basis_once .false. can be used to disable this option.
  communication_type for Hartree potential was not specified.
  Defaulting to calc_hartree .
  Defaulting to Pulay charge density mixer.
  Pulay mixer: Number of relevant iterations not set.
  Defaulting to    8 iterations.
  Pulay mixer: Number of initial linear mixing iterations not set.
  Defaulting to    0 iterations.
  Work space size for distributed Hartree potential not set.
  Defaulting to   0.200000E+03 MB.
  Mixing parameter for charge density mixing has not been set.
  Using default: charge_mix_param =     0.0500.
  The mixing parameter will be adjusted in iteration number     2 of the first full s.c.f. cycle only.
  Algorithm-dependent basis array size parameters:
  | n_max_pulay                         :        8
  Maximum number of self-consistency iterations not provided.
  Presetting  1000 iterations.
  Presetting      1001 iterations before the initial mixing cycle
  is restarted anyway using the sc_init_iter criterion / keyword.
  Presetting a factor      1.000 between actual scf density residual
  and density convergence criterion sc_accuracy_rho below which sc_init_iter
  takes no effect.
 * No s.c.f. convergence criteria (sc_accuracy_*) were provided in control.in.
 * The run will proceed with a reasonable default guess, but please check whether.
 * the s.c.f. cycles seem to take too much or too little time.
  Geometry relaxation not requested: no relaxation will be performed.
  Forces evaluation will include force correction term due to incomplete self-consistency (default).
 * Notice: The s.c.f. convergence criterion sc_accuracy_rho was not provided.
 * We used to stop in this case, and ask the user to provide reasonable
 * scf convergence criteria. However, this led some users to employ criteria
 * that led to extremely long run times, e.g., for simple relaxation.
 * We now preset a default value for sc_accuracy_rho if it is not set.
 * You may still wish to check if this setting is too tight or too loose for your needs.
 * Based on n_atoms and forces and force-correction status, FHI-aims chose sc_accuracy_rho =  0.212132E-05 .
  Force calculation: scf convergence accuracy of forces not set.
  Defaulting to 'sc_accuracy_forces not_checked'.
  Handling of forces: Unphysical translation and rotation will be removed from forces.
  No accuracy limit for integral partition fn. given. Defaulting to  0.1000E-14.
  No threshold value for u(r) in integrations given. Defaulting to  0.1000E-05.
  No occupation type (smearing scheme) given. Defaulting to Gaussian broadening, width =  0.1000E-01 eV.
  The width will be adjusted in iteration number     2 of the first full s.c.f. cycle only.
  S.C.F. convergence parameters will be adjusted in iteration number     2 of the first full s.c.f. cycle only.
  No accuracy for occupation numbers given. Defaulting to  0.1000E-12.
  No threshold value for occupation numbers given. Defaulting to  0.0000E+00.
  No accuracy for fermi level given. Defaulting to  0.1000E-19.
  Maximum # of iterations to find E_F not set. Defaulting to  200.
  Preferred method for the eigenvalue solver ('KS_method') not specified in 'control.in'.
  Calling BLACS routine to test compilation state
  Since ScaLAPACK support is enabled, defaulting to ELPA (via ELSI).
  Will not use alltoall communication since running on < 1024 CPUs.
  Threshold for basis singularities not set.
  Default threshold for basis singularities:  0.1000E-04
  partition_type (choice of integration weights) for integrals was not specified.
  | Using a version of the partition function of Stratmann and coworkers ('stratmann_sparse').
  | At each grid point, the set of atoms used to build the partition table is smoothly restricted to
  | only those atoms whose free-atom density would be non-zero at that grid point.
  Partitioning for Hartree potential was not defined. Using partition_type for integrals.
  | Adjusted default value of keyword multip_moments_threshold to:       0.10000000E-11
  | This value may affect high angular momentum components of the Hartree potential in periodic systems.
  Spin handling was not defined in control.in. Defaulting to unpolarized case.
  Threshold for auxiliary basis singularities not set.
  Default threshold for auxiliary basis singularities:  0.1000E-04
  No q(lm)/r^(l+1) cutoff set for long-range Hartree potential.
  | Using default value of  0.100000E-09 .
  | Verify using the multipole_threshold keyword.
  Defaulting to new monopole extrapolation.
  Density update method: automatic selection selected.
  Coulomb operator: Defaulting to screening threshold for four-center integrals:   0.100000E-06
  Coulomb operator: Defaulting to screening threshold for Coulomb matrix:   0.100000E-09
  Fock matrix calculation: Setting the screening threshold for overlap matrix to coul_mat_threshold:   0.100000E-09
  Coulomb operator: Defaulting to 'LVL_fast' resolution of identity - RI_type = LVL_fast 
  No other resolution of identity version is supported for periodic boundary conditions at present.
  Coulomb operator: Defaulting to logarithmic spherical Bessel transform integrals (use_logsbt .true.).
  Charge integration errors on the 3D integration grid will be compensated
  by explicit normalization and distribution of residual charges.
  Use the "compensate_multipole_errors" flag to change this behaviour.
  LVL not implemented with density matrix yet
  -> switching to transformed overlap
  LVL probably works better with logsbt
  Default to 1D ("use_logsbt") integrations for auxiliary 2-center integrals.
  Default onset of logarithmic r-grid for SBT is -38.000000000000
  Default onset of logarithmic k-grid for SBT is -25.000000000000
  Default range of logarithmic r- and k-grid for SBT is  45.000000000000
  Default number of logarithmic r- and k-grid for SBT is   4096
  Default of use_2d_corr is to use the efficient 2D distribution where possible
  Set 'collect_eigenvectors' to be '.true.' for use_density_matrix .false.
 
  Consistency checks for the contents of geometry.in are next.
 
  Number of empty states per atom not set in control.in - providing a guess from actual geometry.
  | Total number of empty states used during s.c.f. cycle:       54
  If you use a very high smearing, use empty_states (per atom!) in control.in to increase this value.

  Structure-dependent array size parameters: 
  | Maximum number of distinct radial functions  :       18
  | Maximum number of basis functions            :      621
  | Number of Kohn-Sham states (occupied + empty):       99
------------------------------------------------------------
  Setting Coulomb cut-width to  1.091868692359 * rcut.
  Setting Coulomb cutting radius rcut to  8.000000000000 A.
  After read_input_data [GB]:    242.78

  Performing system and environment tests:
  | Environment variable OMP_NUM_THREADS correctly set to 1.
  | Checking for ScaLAPACK...
  | Testing pdtran()...
  | All pdtran() tests passed.
  After prepare_system [GB]:    242.74

------------------------------------------------------------
          Preparing all fixed parts of the calculation.
------------------------------------------------------------
  Determining machine precision:
    2.225073858507201E-308
  Setting up grids for atomic and cluster calculations.

  Creating wave function, potential, and density for free atoms.
  Runtime choices for atomic solver:
  | atomic solver xc        : PBE
  | compute density gradient: 1
  | compute kinetic density : F

  Species: O

  List of occupied orbitals and eigenvalues:
    n    l              occ      energy [Ha]    energy [eV]
    1    0           2.0000       -18.927378      -515.0401
    2    0           2.0000        -0.880539       -23.9607
    2    1           4.0000        -0.331811        -9.0290


  Species: H

  List of occupied orbitals and eigenvalues:
    n    l              occ      energy [Ha]    energy [eV]
    1    0           1.0000        -0.238386        -6.4868


  Adding cutoff potential to free-atom effective potential.
  Creating fixed part of basis set: Ionic, confined, hydrogenic.
 
  O                    hydrogenic:
 
  List of hydrogenic basis orbitals: 
    n    l      effective z      eigenvalue [eV]  inner max. [A]     outer max. [A]     outer radius [A]   
    2    1         1.800000       -11.0118           1.178562           1.178562           5.432602
    3    2         7.600000       -87.3182           0.624125           0.624125           3.541477
    3    0         6.400000       -61.9209           0.061167           1.081902           4.306578
    4    3        11.600000      -114.4238           0.731631           0.731631           3.585037
    3    1         6.200000       -58.1113           0.255680           1.030270           4.306578
    3    2         5.600000       -47.4081           0.847233           0.847233           4.413171
    5    4        17.600000      -168.5799           0.749740           0.749740           3.372465
    1    0         0.750000        -7.6499           0.705284           0.705284           5.366593
 
 
  H                    hydrogenic:
 
  List of hydrogenic basis orbitals: 
    n    l      effective z      eigenvalue [eV]  inner max. [A]     outer max. [A]     outer radius [A]   
    2    0         2.100000       -14.9965           0.193243           1.317208           5.373006
    2    1         3.500000       -41.6672           0.602369           0.602369           4.056063
    1    0         0.850000        -9.8292           0.624871           0.624871           5.373006
    2    1         3.700000       -46.5653           0.573622           0.573622           3.910002
    2    0         1.200000        -4.5995           0.334980           2.228188           5.505995
    3    2         7.000000       -74.0753           0.680699           0.680699           3.769201
 
  Creating atomic-like basis functions for current effective potential.

  Species O                   :

  List of atomic basis orbitals and eigenvalues:
    n    l      energy [Ha]    energy [eV]    outer radius [A]
    1    0       -18.927378      -515.0401       1.415765
    2    0        -0.880539       -23.9607       5.048385
    2    1        -0.331811        -9.0290       5.301386


  Species H                   :

  List of atomic basis orbitals and eigenvalues:
    n    l      energy [Ha]    energy [eV]    outer radius [A]
    1    0        -0.238386        -6.4868       5.373006

  Assembling full basis from fixed parts.
  | Species O :   atomic orbital   1 s accepted.
  | Species O :    hydro orbital   3 s accepted.
  | Species O :   atomic orbital   2 s accepted.
  | Species O :    hydro orbital   1 s accepted.
  | Species O :    hydro orbital   3 p accepted.
  | Species O :   atomic orbital   2 p accepted.
  | Species O :    hydro orbital   2 p accepted.
  | Species O :    hydro orbital   3 d accepted.
  | Species O :    hydro orbital   3 d accepted.
  | Species O :    hydro orbital   4 f accepted.
  | Species O :    hydro orbital   5 g accepted.
  | Species H :   atomic orbital   1 s accepted.
  | Species H :    hydro orbital   2 s accepted.
  | Species H :    hydro orbital   1 s accepted.
  | Species H :    hydro orbital   2 s accepted.
  | Species H :    hydro orbital   2 p accepted.
  | Species H :    hydro orbital   2 p accepted.
  | Species H :    hydro orbital   3 d accepted.
 
  Basis size parameters after reduction:
  | Total number of radial functions:       18
  | Total number of basis functions :      621
 
  Per-task memory consumption for arrays in subroutine allocate_ext:
  |           6.010732MB.
  Testing on-site integration grid accuracy.
  |  Species  Function  <phi|h_atom|phi> (log., in eV)  <phi|h_atom|phi> (rad., in eV)
           1        1               -515.0401491148               -515.0401445497
           1        2                 15.1629302771                 15.1629233102
           1        3                -21.6127103295                -21.6127145449
           1        4                 14.4001435709                 14.4001765990
           1        5                 20.8862585187                 20.8862589491
           1        6                 -2.4803658578                 -2.4803665016
           1        7                 13.8586387760                 13.8586021622
           1        8                 45.8331828879                 45.8331828941
           1        9                 52.1851961049                 52.1851977023
           1       10                 85.4133898762                 85.4133899074
           1       11                142.1023296234                142.1023296272
           2       12                 -6.4870767962                 -6.4871688290
           2       13                 13.5032046589                 13.5028982997
           2       14                 32.8195184817                 32.8119941656
           2       15                 33.8513856512                 33.7670005767 ***
           2       16                 28.8544614965                 28.8544615203
           2       17                 59.6326952547                 59.6327656460
           2       18                 60.2719308513                 60.2719305949
 * Note: Onsite integrals marked "***" above are less accurate than
 * onsite_accuracy_threshold =    0.03000 eV. Usually, this is harmless.
 * When in doubt, tighten the "radial" and/or "radial_multiplier" flags to check.

  Preparing densities etc. for the partition functions (integrals / Hartree potential).

  Preparations completed.
  max(cpu_time)          :      0.113 s.
  Wall clock time (cpu1) :      0.113 s.
------------------------------------------------------------
  After prepare_scf [GB]:    242.54

  Initializing index lists of integration centers etc. from given atomic structure:
  | Number of centers in hartree potential         :        27
  | Number of centers in hartree multipole         :        27
  | Number of centers in electron density summation:        27
  | Number of centers in basis integrals           :        27
  | Number of centers in integrals                 :        27
  | Number of centers in hamiltonian               :        27
  After initialize_bc_dependent_lists [GB]:    242.54

------------------------------------------------------------
          Begin self-consistency loop: Initialization.

          Date     :  20240806, Time     :  201016.679
------------------------------------------------------------
  Available memory per node after initialize_hartree_non_periodic_ewald [GB]:    242.54
  Available memory per node after initialize_recip_hartree_potential [GB]:    242.54
  * Using 8 tasks for Scalapack Eigenvalue solver.
  Detailed listing of tasks and assigned k-points:
  (for non-periodic systems, the "k-point" denotes an internal label only)
   Task     0 k-point     1 on ravc3445
   Task     1 k-point     1 on ravc3445
   Task     2 k-point     1 on ravc3445
   Task     3 k-point     1 on ravc3445
   Task     4 k-point     1 on ravc3445
   Task     5 k-point     1 on ravc3445
   Task     6 k-point     1 on ravc3445
   Task     7 k-point     1 on ravc3445
  Tasks:     8 split into      4 X      2 BLACS grid
  Calculating block size based on n_basis =          621  max_nprow =            4  max_npcol =            2
  ScaLAPACK block size set to:           16
  Allocating        0.387 MB for ovlp
  Allocating        0.387 MB for ham
  Allocating        0.387 MB for eigenvec
  Required Scalapack workspace - INTEGER:            1  REAL:             1
  Available memory per node after initialize_scalapack [GB]:    242.54
  Available memory per node after aims_elsi_init_scf [GB]:    242.54
  Available memory per node after initialize_fixed_grids [GB]:    242.54
  Partitioning the integration grid into batches with parallel hashing+maxmin method.
  | Number of batches:     4388
  | Maximal batch size:     200
  | Minimal batch size:      51
  | Average batch size:     100.579
  | Standard deviation of batch sizes:      30.678

  Integration load balanced across     8 MPI tasks.
  Work distribution over tasks is as follows:
  Task     0 has      55199 integration points.
  Task     1 has      55199 integration points.
  Task     2 has      55136 integration points.
  Task     3 has      55103 integration points.
  Task     4 has      55136 integration points.
  Task     5 has      55172 integration points.
  Task     6 has      55171 integration points.
  Task     7 has      55226 integration points.
  Available memory per node after partition_grid [GB]:    242.51
  Initializing partition tables, free-atom densities, potentials, etc. across the integration grid (initialize_grid_storage).
  | initialize_grid_storage: Actual outermost partition radius vs. multipole_radius_free
  | (-- VB: in principle, multipole_radius_free should be larger, hence this output)
  | Species        1: Confinement radius =              6.000000000000000 AA, multipole_radius_free =              6.064445521808699 AA.
  | Species        1: outer_partition_radius set to              6.064445521808699 AA .
  | Species        2: Confinement radius =              6.000000000000000 AA, multipole_radius_free =              6.071692442739658 AA.
  | Species        2: outer_partition_radius set to              6.071692442739658 AA .
  | The sparse table of interatomic distances needs          8.54 kbyte instead of         5.83 kbyte of memory.
  | Using the partition_type stratmann_smoother will reduce your memory usage.
  | Net number of integration points:   441342
  | of which are non-zero points    :   351395
  Available memory per node after initialize_grid_storage_p1 [GB]:    242.48
  Renormalizing the initial density to the exact electron count on the 3D integration grid.
  | Initial density: Formal number of electrons (from input files) :      90.0000000000
  | Integrated number of electrons on 3D grid     :      89.9999092123
  | Charge integration error                      :      -0.0000907877
  | Normalization factor for density and gradient :       1.0000010088
  Renormalizing the free-atom superposition density to the exact electron count on the 3D integration grid.
  | Formal number of electrons (from input files) :      90.0000000000
  | Integrated number of electrons on 3D grid     :      89.9999092123
  | Charge integration error                      :      -0.0000907877
  | Normalization factor for density and gradient :       1.0000010088
  Obtaining max. number of non-zero basis functions in each batch (get_n_compute_maxes).
  | Maximal number of non-zero basis functions:      614 in task     0
  | Maximal number of non-zero basis functions:      614 in task     1
  | Maximal number of non-zero basis functions:      613 in task     2
  | Maximal number of non-zero basis functions:      613 in task     3
  | Maximal number of non-zero basis functions:      613 in task     4
  | Maximal number of non-zero basis functions:      614 in task     5
  | Maximal number of non-zero basis functions:      613 in task     6
  | Maximal number of non-zero basis functions:      614 in task     7
  Selecting the method for density update.
  Loop over occupied states selected for charge density update.
  Available memory per node after get_n_compute_maxes_p1 [GB]:    242.48
  Allocating        0.469 MB for KS_eigenvector
  Available memory per node after allocate_matrices [GB]:    242.47
  Available memory per node after init_comm_sparse_local_matrix_scalapack [GB]:    242.47
  Integrating Hamiltonian matrix: batch-based integration.
  Time summed over all CPUs for integration: real work        7.745 s, elapsed        7.873 s
  Available memory per node after integrate hamiltonian matrix [GB]:    242.39
  Integrating overlap matrix.
  Time summed over all CPUs for integration: real work        3.585 s, elapsed        3.787 s
  Available memory per node after integrate ovlp matrix [GB]:    242.37
  Available memory per node after ASI_callbacks invoke [GB]:    242.37
  Deallocating overlap matrix.
  Available memory per node after save_overlap_scalapack [GB]:    242.37

  Updating Kohn-Sham eigenvalues and eigenvectors using ELSI and the ELPA eigensolver.
  Overlap matrix is not singular
  | Lowest and highest eigenvalues :  0.1495E-03,  0.1308E+02
  Finished singularity check of overlap matrix
  | Time :     0.018 s
  Starting ELPA eigensolver
  Finished Cholesky decomposition
  | Time :     0.004 s
  Finished transformation to standard eigenproblem
  | Time :     0.004 s
  Finished solving standard eigenproblem
  | Time :     0.019 s
  Finished back-transformation of eigenvectors
  | Time :     0.001 s

  Obtaining occupation numbers and electronic chemical potential using ELSI.
  | Note that, for insulating systems, the printed 'chemical potential' value is not uniquely defined.
  | It can be anywhere in the energy gap, as long as it correctly separates occupied and unoccupied states.
  | In systems with a gap, the physically relevant chemical potential is the VBM or HOMO.

  | Chemical potential (Fermi level):    -7.86836040 eV
  Available memory per node after advance_KS_solution [GB]:    242.35
  Writing Kohn-Sham eigenvalues.

  State    Occupation    Eigenvalue [Ha]    Eigenvalue [eV]
      1       2.00000         -19.041188         -518.13709
      2       2.00000         -19.041037         -518.13299
      3       2.00000         -19.040960         -518.13088
      4       2.00000         -19.040095         -518.10734
      5       2.00000         -19.039920         -518.10259
      6       2.00000         -19.039322         -518.08630
      7       2.00000         -19.038846         -518.07337
      8       2.00000         -19.038821         -518.07267
      9       2.00000         -19.038085         -518.05266
     10       2.00000          -1.120847          -30.49979
     11       2.00000          -1.114404          -30.32448
     12       2.00000          -1.112516          -30.27310
     13       2.00000          -1.110009          -30.20488
     14       2.00000          -1.105522          -30.08279
     15       2.00000          -1.105251          -30.07542
     16       2.00000          -1.104264          -30.04854
     17       2.00000          -1.096619          -29.84051
     18       2.00000          -1.096400          -29.83456
     19       2.00000          -0.659359          -17.94207
     20       2.00000          -0.654429          -17.80791
     21       2.00000          -0.648663          -17.65101
     22       2.00000          -0.643326          -17.50579
     23       2.00000          -0.641918          -17.46748
     24       2.00000          -0.640940          -17.44087
     25       2.00000          -0.636910          -17.33121
     26       2.00000          -0.634258          -17.25905
     27       2.00000          -0.632203          -17.20313
     28       2.00000          -0.545592          -14.84631
     29       2.00000          -0.543696          -14.79471
     30       2.00000          -0.529238          -14.40130
     31       2.00000          -0.523091          -14.23402
     32       2.00000          -0.520910          -14.17468
     33       2.00000          -0.512693          -13.95108
     34       2.00000          -0.509848          -13.87367
     35       2.00000          -0.503249          -13.69410
     36       2.00000          -0.493835          -13.43794
     37       2.00000          -0.453978          -12.35338
     38       2.00000          -0.452849          -12.32264
     39       2.00000          -0.451127          -12.27578
     40       2.00000          -0.448384          -12.20114
     41       2.00000          -0.446854          -12.15952
     42       2.00000          -0.446170          -12.14089
     43       2.00000          -0.444405          -12.09287
     44       2.00000          -0.442800          -12.04920
     45       2.00000          -0.439984          -11.97256
     46       0.00000          -0.106274           -2.89186
     47       0.00000          -0.065534           -1.78327
     48       0.00000          -0.062800           -1.70886
     49       0.00000          -0.058064           -1.58000
     50       0.00000          -0.035897           -0.97680
     51       0.00000          -0.021766           -0.59230
     52       0.00000          -0.010455           -0.28449
     53       0.00000          -0.004173           -0.11356
     54       0.00000           0.008238            0.22417
     55       0.00000           0.021226            0.57758
     56       0.00000           0.032438            0.88268
     57       0.00000           0.035046            0.95366
     58       0.00000           0.046111            1.25473
     59       0.00000           0.055101            1.49937
     60       0.00000           0.060814            1.65483
     61       0.00000           0.064483            1.75468
     62       0.00000           0.068646            1.86795
     63       0.00000           0.072048            1.96052
     64       0.00000           0.075428            2.05250
     65       0.00000           0.080126            2.18034
     66       0.00000           0.085518            2.32707
     67       0.00000           0.088142            2.39846
     68       0.00000           0.098395            2.67747
     69       0.00000           0.102217            2.78146
     70       0.00000           0.105929            2.88247
     71       0.00000           0.106833            2.90708
     72       0.00000           0.112659            3.06560
     73       0.00000           0.116453            3.16885
     74       0.00000           0.120305            3.27367
     75       0.00000           0.123729            3.36685
     76       0.00000           0.127608            3.47238
     77       0.00000           0.130240            3.54401
     78       0.00000           0.140064            3.81133
     79       0.00000           0.143199            3.89663
     80       0.00000           0.149463            4.06709
     81       0.00000           0.155294            4.22576
     82       0.00000           0.158037            4.30041
     83       0.00000           0.166920            4.54214
     84       0.00000           0.176868            4.81281
     85       0.00000           0.187759            5.10919
     86       0.00000           0.191714            5.21681
     87       0.00000           0.196143            5.33733
     88       0.00000           0.218688            5.95081
     89       0.00000           0.222430            6.05263
     90       0.00000           0.222907            6.06560
     91       0.00000           0.247133            6.72482
     92       0.00000           0.253576            6.90014
     93       0.00000           0.257724            7.01301
     94       0.00000           0.270534            7.36161
     95       0.00000           0.287864            7.83319
     96       0.00000           0.296403            8.06553
     97       0.00000           0.305965            8.32574
     98       0.00000           0.312715            8.50942
     99       0.00000           0.315747            8.59192

  Highest occupied state (VBM) at    -11.97256382 eV
  | Occupation number:      2.00000000

  Lowest unoccupied state (CBM) at    -2.89185849 eV
  | Occupation number:      0.00000000

  Overall HOMO-LUMO gap:      9.08070533 eV.
  Calculating total energy contributions from superposition of free atom densities.

  Total energy components:
  | Sum of eigenvalues            :        -391.64962691 Ha      -10657.32858709 eV
  | XC energy correction          :         -81.54480299 Ha       -2218.94698814 eV
  | XC potential correction       :         104.88925858 Ha        2854.18194506 eV
  | Free-atom electrostatic energy:        -320.62007043 Ha       -8724.51601489 eV
  | Hartree energy correction     :           0.00000000 Ha           0.00000000 eV
  | Entropy correction            :           0.00000000 Ha           0.00000000 eV
  | ---------------------------
  | Total energy                  :        -688.92524175 Ha      -18746.60964506 eV
  | Total energy, T -> 0          :        -688.92524175 Ha      -18746.60964506 eV  <-- do not rely on this value for anything but (periodic) metals
  | Electronic free energy        :        -688.92524175 Ha      -18746.60964506 eV

  Derived energy quantities:
  | Kinetic energy                :         682.05234823 Ha       18559.58869671 eV
  | Electrostatic energy          :       -1289.43278699 Ha      -35087.25135363 eV
  | Energy correction for multipole
  | error in Hartree potential    :           0.00000000 Ha           0.00000000 eV
  | Sum of eigenvalues per atom                           :        -394.71587360 eV
  | Total energy (T->0) per atom                          :        -694.31887574 eV  <-- do not rely on this value for anything but (periodic) metals
  | Electronic free energy per atom                       :        -694.31887574 eV
  
  --------------------------------------------
  Constructing auxiliary basis (full product) ...
  
  Product basis:
  | charge radius: extent of product basis function
  | field radius: extent of its Coulomb potential
  | Species   l  charge radius    field radius  multipol momen
  |    O      0     2.043000 A      2.043000 A        6.592599E-17 a.u.
  |    O      7     3.498446 A      3.498446 A        2.237585E-14 a.u.
  |    O      6     3.585037 A      3.585037 A        1.895945E-15 a.u.
  |    O      6     3.718959 A      3.718959 A        7.269419E-15 a.u.
  |    O      6     3.764702 A      3.764702 A       -2.924334E-14 a.u.
  |    O      4     3.811008 A      3.811008 A       -1.665788E-15 a.u.
  |    O      5     3.811008 A      3.811008 A        5.872647E-17 a.u.
  |    O      3     3.857883 A      3.857883 A        1.726430E-16 a.u.
  |    O      5     3.857883 A      3.857883 A        8.953002E-15 a.u.
  |    O      5     3.905335 A      3.905335 A        4.344963E-15 a.u.
  |    O      3     3.953371 A      3.953371 A        2.313341E-16 a.u.
  |    O      3     3.953371 A      3.953371 A       -7.541056E-17 a.u.
  |    O      1     4.151495 A      4.151495 A        4.801012E-17 a.u.
  |    O      0     4.202559 A      4.202559 A        1.682649E-16 a.u.
  |    O      0     4.202559 A      4.202559 A       -1.027788E-16 a.u.
  |    O      4     4.359549 A      4.359549 A        1.000664E-15 a.u.
  |    O      3     4.413171 A      4.413171 A       -6.834549E-15 a.u.
  |    O      4     4.413171 A      4.413171 A        2.385511E-16 a.u.
  |    O      0     4.467453 A      4.467453 A        8.737127E-17 a.u.
  |    O      1     4.467453 A      4.467453 A        1.535410E-17 a.u.
  |    O      4     4.467453 A      4.467453 A        8.343630E-15 a.u.
  |    O      4     4.467453 A      4.467453 A        9.401644E-15 a.u.
  |    O      1     4.578029 A      4.578029 A        8.939318E-17 a.u.
  |    O      2     4.578029 A      4.578029 A       -1.184320E-16 a.u.
  |    O      1     4.634338 A      4.634338 A       -1.927014E-16 a.u.
  |    O      1     4.634338 A      4.634338 A        2.456376E-16 a.u.
  |    O      1     4.634338 A      4.634338 A       -2.254744E-17 a.u.
  |    O      3     4.691341 A      4.691341 A       -1.333902E-14 a.u.
  |    O      3     4.749044 A      4.749044 A       -1.400589E-15 a.u.
  |    O      3     4.749044 A      4.749044 A       -4.087546E-15 a.u.
  |    O      0     4.987044 A      4.987044 A       -2.444724E-16 a.u.
  |    O      0     4.987044 A      4.987044 A       -6.894723E-17 a.u.
  |    O      2     5.236971 A      5.236971 A        6.480941E-16 a.u.
  |    O      2     5.236971 A      5.236971 A       -1.528220E-15 a.u.
  |    O      0     5.366593 A      5.432602 A       -9.489304E-17 a.u.
  |    O      1     5.432602 A      5.432602 A       -2.564074E-16 a.u.
  |    O      1     5.432602 A      5.432602 A       -1.428513E-16 a.u.
  |    O      2     5.432602 A      5.432602 A        8.650849E-16 a.u.
  |    O      2     5.432602 A      5.432602 A       -1.089596E-15 a.u.
  |    O      2     5.432602 A      5.432602 A        3.233072E-17 a.u.
  |    O      0     5.432602 A      5.499423 A        1.981919E-16 a.u.
  |    O      1     5.432602 A      5.499423 A        6.659838E-16 a.u.
  |    O      2     5.432602 A      5.499423 A       -1.999084E-16 a.u.
  |    O      2     5.432602 A      5.499423 A        2.199334E-15 a.u.
  |    O      8     3.372465 A  2.352329E+01 A           53.933996 a.u.
  |    O      7     3.541477 A  4.005749E+01 A           85.792738 a.u.
  |    O      6     3.811008 A  8.478793E+01 A          215.734909 a.u.
  |    O      5     3.905335 A  1.625761E+02 A           66.915101 a.u.
  |    O      4     4.522403 A  5.113866E+02 A           67.070426 a.u.
  |    O      3     4.807458 A  2.586311E+03 A           45.405529 a.u.
  |    O      2     5.499423 A  2.884318E+04 A           12.885943 a.u.
  |    O      1     5.432602 A  2.965977E+06 A            2.499905 a.u.
  |    O      0     5.432602 A  4.308149E+12 A            0.647858 a.u.
  |    H      3     3.910002 A      3.910002 A       -1.041383E-15 a.u.
  |    H      3     3.910002 A      3.910002 A       -2.919639E-16 a.u.
  |    H      2     4.006780 A      4.006780 A       -3.476533E-17 a.u.
  |    H      2     4.156456 A      4.156456 A       -1.767231E-16 a.u.
  |    H      2     4.156456 A      4.156456 A       -2.507086E-15 a.u.
  |    H      1     4.207581 A      4.207581 A        7.754623E-17 a.u.
  |    H      2     4.207581 A      4.207581 A       -1.536325E-16 a.u.
  |    H      1     4.259334 A      4.259334 A        2.593088E-16 a.u.
  |    H      2     4.259334 A      4.259334 A        2.012189E-16 a.u.
  |    H      1     4.311724 A      4.364758 A       -1.002378E-16 a.u.
  |    H      1     4.527807 A      4.527807 A        1.249045E-17 a.u.
  |    H      1     4.472792 A      4.527807 A       -7.012741E-16 a.u.
  |    H      1     4.472792 A      4.527807 A        7.177619E-18 a.u.
  |    H      0     5.307721 A      5.307721 A       -6.920983E-17 a.u.
  |    H      0     5.307721 A      5.373006 A       -2.531617E-16 a.u.
  |    H      0     5.439094 A      5.505995 A       -2.429147E-16 a.u.
  |    H      0     5.439094 A      5.505995 A        8.821671E-17 a.u.
  |    H      0     5.439094 A      5.505995 A        1.289626E-17 a.u.
  |    H      0     5.439094 A      5.505995 A       -2.595208E-16 a.u.
  |    H      0     5.505995 A      5.573719 A        8.924839E-19 a.u.
  |    H      0     5.505995 A      5.573719 A        7.699972E-16 a.u.
  |    H      4     3.723403 A  2.580116E+02 A            2.192707 a.u.
  |    H      3     3.958095 A  1.432892E+03 A            4.277983 a.u.
  |    H      2     4.259334 A  2.202637E+04 A            5.738728 a.u.
  |    H      1     4.472792 A  2.627400E+06 A            1.961735 a.u.
  |    H      0     5.505995 A  5.052187E+12 A            0.759746 a.u.

  | Shrink_full_auxil_basis : there are       79  radial auxiliary wave functions
                            accepted and     113 rejected.
  | Shrink_full_auxil_basis : there are totally                4653 partial auxiliary wave functions.
  prodbas_tasks_distribution_pbc not up to date - distributing tasks.
 
  | Maximal number of product basis functions per thread :   592   592
 
  | Number of local auxiliary basis funcs on node     0 :    592
  | Number of local auxiliary basis funcs on node     1 :    592
  | Number of local auxiliary basis funcs on node     2 :    589
  | Number of local auxiliary basis funcs on node     3 :    576
  | Number of local auxiliary basis funcs on node     4 :    576
  | Number of local auxiliary basis funcs on node     5 :    576
  | Number of local auxiliary basis funcs on node     6 :    576
  | Number of local auxiliary basis funcs on node     7 :    576
  Parallel distribution of product basis not up to date - distributing tasks.
 
  | Maximal number of product basis functions per thread :   592   592
 
  | Minimal total memory requirement for three-center overlap :       7.143 Gbs
  | Number of local auxiliary basis functions on task:      0   592
  | Number of local auxiliary basis functions on task:      1   592
  | Number of local auxiliary basis functions on task:      2   589
  | Number of local auxiliary basis functions on task:      3   576
  | Number of local auxiliary basis functions on task:      4   576
  | Number of local auxiliary basis functions on task:      5   576
  | Number of local auxiliary basis functions on task:      6   576
  | Number of local auxiliary basis functions on task:      7   576
  | 2D aux task distribution:      2 X      4
  | 2D block size (nb_aux_2d):     64
  | Task at    0 x    0 gets   2349 x   1197 entries of 2D aux
  | Task at    0 x    1 gets   2349 x   1152 entries of 2D aux
  | Task at    0 x    2 gets   2349 x   1152 entries of 2D aux
  | Task at    0 x    3 gets   2349 x   1152 entries of 2D aux
  | Task at    1 x    0 gets   2304 x   1197 entries of 2D aux
  | Task at    1 x    1 gets   2304 x   1152 entries of 2D aux
  | Task at    1 x    2 gets   2304 x   1152 entries of 2D aux
  | Task at    1 x    3 gets   2304 x   1152 entries of 2D aux
  Minimal free memory per node on init_fm entry [GB]:    242.32
  -----------------------------------------
  --- Initializing Fock matrix calculations
  -----------------------------------------
  screening_threshold (crit_val) =  0.000000100000
  coul_mat_threshold =  0.000000000100
  No atoms are split internally
  Number of super-cells in X Y Z:       0       0       0
  Number of atoms pairs total:          729
  Atom pair distribution:
  Cell:        0       0       0 atom pairs:      729
  sparsity of pfbvk:   1.000000
  Number of atoms pairs in BvK cells:          729
  Max. memory consumption per node for Pulay mixing [GB]:      0.03
  Minimal total memory per node [GB]:    263.11
  Minimal free memory per node [GB]:    242.30
  --- Initializing LVL triples, type COULOMB
  | Storage requirements for basis-basbas products (processor-local):
  |   Species O: n_prodsfn:  1094; storage:       34.19 MiB.
  |   Species H: n_prodsfn:   243; storage:        7.59 MiB.

  --- Initializing Coulomb matrix calculations, type COULOMB
  Preparing TB like auxiliary 2-center Coulomb matrix
  SBT integration errors (all should be 'small'):
  large logFT aliasing -> increase N/lnrange
  large SBT aliasing -> decrease lnk0 & increase lnk0+lnrange
  large SBT ringing -> decrease lnr0 & increase lnr0+lnrange
  |            El't  L: logFT-al.   small-k   large-k   small-r   large-r
  | Need to store  6748 splines of   227 points taking      12080 KiB.
  | Spline reduction from  4096 to   227 points by (cutting and)     1 x coarsening gives error:  0.00E+00
  Finished with initialize_tb_auxmat/lvl_triples, time:        0.354
  --- Calculating Coulomb matrices
  Upper limit for memory consumption per node [GB] for Coulomb matrices if no compression occurs:       0.693
  Upper limit for temporary arrays in Coulomb matrix initalization [GB]:      2.40
  Allocating        0.866 MB for aux_mat
  Allocating        2.599 MB for d_aux_mat
  Min./max. time for Coulomb matrix computation [s]:      0.22      0.33
  Max. memory consumption per node for global Coulomb matrix [GB]:      0.66
  Time to calculate Coulomb Matrices   :        0.372
  After init_coulomb_tuned [GB]:    240.78
  Max. memory consumption per node for uncompressed ovlp3fn matrix [GB]:       2.833
  --- Calculating OVLP3FN
  --- Done calculating OVLP3FN, time:       37.172
  After init_ovlp3fn_tuned2 [GB]:    237.65
  Max. memory consumption per node for compressed global ovlp3fn matrix [GB]:       5.541
  Atomic logSBT for 2-center Coulomb matrix    :  max(cpu_time)    wall_clock(cpu1)
  | TB initialization                           :        0.256 s           0.256 s
  | TB usage                                    :        0.454 s           0.450 s

  Atomic logSBT for LVL-triples                :  max(cpu_time)    wall_clock(cpu1)
  | Multiplication with kernel                  :        0.270 s           0.169 s
  | Main matrix multiplication                  :       21.889 s          21.731 s
  | Analytic angular integration                :        0.258 s           0.172 s
  | Kernel construction                         :        0.344 s           0.177 s
  | Overall 2-center overlap time               :       23.721 s          23.554 s
  | 3-center preparation multiplications        :        0.094 s           0.093 s
  | 3-center preparation SBTs                   :        2.181 s           2.181 s
  | 3-center combinations                       :       28.563 s          28.545 s
  | Overal 3-center time                        :       30.822 s          30.825 s
  | LVL initialization                          :        0.097 s           0.098 s
  | Whole LVL-triples                           :        0.097 s           0.098 s

  Assumed free memory per node for Fock matrix prefactors [GB]    215.99
  Memory per instance for Coulomb / ovlp matrix [GB]      0.66      5.54
  Number of nodes, tasks per node     1     8
  Number of instances:    2
  -----------------------------------------------------
  Dividing atoms among tasks for exact exchange energy:
  Atom:     1 Weight:  0.81618E+07
  Atom:     2 Weight:  0.83835E+06
  Atom:     3 Weight:  0.83835E+06
  Atom:     4 Weight:  0.81618E+07
  Atom:     5 Weight:  0.83835E+06
  Atom:     6 Weight:  0.83835E+06
  Atom:     7 Weight:  0.81618E+07
  Atom:     8 Weight:  0.83835E+06
  Atom:     9 Weight:  0.83835E+06
  Atom:    10 Weight:  0.81618E+07
  Atom:    11 Weight:  0.83835E+06
  Atom:    12 Weight:  0.83835E+06
  Atom:    13 Weight:  0.81618E+07
  Atom:    14 Weight:  0.83835E+06
  Atom:    15 Weight:  0.83835E+06
  Atom:    16 Weight:  0.81618E+07
  Atom:    17 Weight:  0.83835E+06
  Atom:    18 Weight:  0.83835E+06
  Atom:    19 Weight:  0.81618E+07
  Atom:    20 Weight:  0.83835E+06
  Atom:    21 Weight:  0.83835E+06
  Atom:    22 Weight:  0.81618E+07
  Atom:    23 Weight:  0.83835E+06
  Atom:    24 Weight:  0.83835E+06
  Atom:    25 Weight:  0.81618E+07
  Atom:    26 Weight:  0.83835E+06
  Atom:    27 Weight:  0.83835E+06

  Average weight per task:  0.22137E+08

  Number of "big" (above average) atoms  :     0
  Number of "small" (below average) atoms:    27

  All atoms have below average work per task
  No atom will be divided among tasks, atoms will be sorted to get best load distribution

  Atom division among tasks:
  Atom     1: (initial) task:     0, # of tasks:     1
  Atom     2: (initial) task:     1, # of tasks:     1
  Atom     3: (initial) task:     2, # of tasks:     1
  Atom     4: (initial) task:     3, # of tasks:     1
  Atom     5: (initial) task:     1, # of tasks:     1
  Atom     6: (initial) task:     2, # of tasks:     1
  Atom     7: (initial) task:     1, # of tasks:     1
  Atom     8: (initial) task:     2, # of tasks:     1
  Atom     9: (initial) task:     2, # of tasks:     1
  Atom    10: (initial) task:     2, # of tasks:     1
  Atom    11: (initial) task:     0, # of tasks:     1
  Atom    12: (initial) task:     3, # of tasks:     1
  Atom    13: (initial) task:     0, # of tasks:     1
  Atom    14: (initial) task:     3, # of tasks:     1
  Atom    15: (initial) task:     1, # of tasks:     1
  Atom    16: (initial) task:     3, # of tasks:     1
  Atom    17: (initial) task:     1, # of tasks:     1
  Atom    18: (initial) task:     1, # of tasks:     1
  Atom    19: (initial) task:     2, # of tasks:     1
  Atom    20: (initial) task:     1, # of tasks:     1
  Atom    21: (initial) task:     1, # of tasks:     1
  Atom    22: (initial) task:     1, # of tasks:     1
  Atom    23: (initial) task:     0, # of tasks:     1
  Atom    24: (initial) task:     0, # of tasks:     1
  Atom    25: (initial) task:     3, # of tasks:     1
  Atom    26: (initial) task:     0, # of tasks:     1
  Atom    27: (initial) task:     0, # of tasks:     1

  -----------------------------------------------------
  Task      0: my_n_atoms2:      7 my_atom_list:      1    11    13    23    24    26    27
  Task      1: my_n_atoms2:      9 my_atom_list:      2     5     7    15    17    18    20    21    22
  Task      2: my_n_atoms2:      6 my_atom_list:      3     6     8     9    10    19
  Task      3: my_n_atoms2:      5 my_atom_list:      4    12    14    16    25
  Task      0: my_n_atoms2:      7 my_atom_list:      1    11    13    23    24    26    27
  Task      1: my_n_atoms2:      9 my_atom_list:      2     5     7    15    17    18    20    21    22
  Task      2: my_n_atoms2:      6 my_atom_list:      3     6     8     9    10    19
  Task      3: my_n_atoms2:      5 my_atom_list:      4    12    14    16    25
  Task      0: my_n_atom_pairs:    189
  Task      1: my_n_atom_pairs:    243
  Task      2: my_n_atom_pairs:    162
  Task      3: my_n_atom_pairs:    135
  Task      0: my_n_atom_pairs:    189
  Task      1: my_n_atom_pairs:    243
  Task      2: my_n_atom_pairs:    162
  Task      3: my_n_atom_pairs:    135
  Transferring Coulomb matrix to final data layout
  Coulomb matrix communicaton time [s]    0.02
  Coulomb matrix communicaton time [s]    0.02
  Coulomb matrix communicaton time [s]    0.02
  Coulomb matrix communicaton time [s]    0.02
  Max. memory per node for ovlp3fn matrices:        5.662 GB
  Total memory for ovlp3fn matrices:        2.831 GB
  --- Done getting norm of OVLP3FN, time:        0.010
  Total memory for ovlp3fn matrices:        2.831 GB
  --- time for get_ovlp3fn:        0.501
  Max. memory consumption per node for Hartree Fock matrix [GB]      0.03
  Blocksize for Fock matrix computation:    20
  Minimal free memory per node after Fock matrix initialization [GB]:    234.02
  Initialize hartree_potential_storage
  Max. number of atoms included in rho_multipole:           27

  End scf initialization - timings             :  max(cpu_time)    wall_clock(cpu1)
  | Time for scf. initialization                :       41.120 s          41.122 s
  | Boundary condition initialization           :        0.003 s           0.003 s
  | Integration                                 :        1.464 s           1.465 s
  | Solution of K.-S. eqns.                     :        0.047 s           0.048 s
  | Grid partitioning                           :        0.258 s           0.258 s
  | Preloading free-atom quantities on grid     :        0.610 s           0.609 s
  | Free-atom superposition energy              :        0.088 s           0.089 s
  | Total energy evaluation                     :        0.000 s           0.000 s
  | Product basis setup: Total time             :       38.649 s          38.651 s

  Partial memory accounting:
  | Current value for overall tracked memory usage:
  |   Minimum:      581.264 MB (on task 6)
  |   Maximum:      768.130 MB (on task 3)
  |   Average:      653.080 MB
  | Peak value for overall tracked memory usage:
  |   Minimum:      638.653 MB (on task 4 after allocating ovlp3fn2%n)
  |   Maximum:      899.050 MB (on task 7 after allocating ovlp3fn2%n)
  |   Average:      737.601 MB
  | Largest tracked array allocation so far:
  |   Minimum:      150.113 MB (ovlp3fn2%dat on task 2)
  |   Maximum:      199.462 MB (ovlp3fn2%dat on task 3)
  |   Average:      168.732 MB
  Note:  These values currently only include a subset of arrays which are explicitly tracked.
  The "true" memory usage will be greater.
------------------------------------------------------------
  Available memory after initialize_scf [GB]:    234.02
  Available memory after allocating mixing [GB]:    234.02
  Evaluating new KS density.
  Integration grid: deviation in total charge (<rho> - N_e) =   4.263256E-14

  Time for density update prior                :  max(cpu_time)    wall_clock(cpu1)
  | self-consistency iterative process          :        0.723 s           0.723 s
  Available memory before start of SCF loop [GB]:    234.01

------------------------------------------------------------
          Begin self-consistency iteration #    1

  Date     :  20240806, Time     :  201058.524
------------------------------------------------------------
  Pulay mixing of updated and previous charge densities.
  Available memory per node after mixing [GB]:    234.01
  Renormalizing the density to the exact electron count on the 3D integration grid.
  | Formal number of electrons (from input files) :      90.0000000000
  | Integrated number of electrons on 3D grid     :      90.0000000000
  | Charge integration error                      :       0.0000000000
  | Normalization factor for density and gradient :       1.0000000000

  Evaluating partitioned Hartree potential by multipole expansion.
  | Original multipole sum: apparent total charge =   0.671657E-13
  | Sum of charges compensated after spline to logarithmic grids =   0.118425E-05
  | Analytical far-field extrapolation by fixed multipoles:
  | Hartree multipole sum: apparent total charge =   0.673317E-13
  |
  | Multipole moments used in the electrostatic potential :
  | What we write is -moment*sqrt(pi/4) , which gives charges in e etc.
  |
  | Atom         1:   l   m          moment
  |                   0   0     -0.02799510
  |                   1  -1      0.00040946
  |                   1   0     -0.00014254
  |                   1   1      0.00032563
  |                   2  -2      0.00140027
  |                   2  -1      0.00066698
  |                   2   0      0.00064215
  |                   2   1      0.00057357
  |                   2   2     -0.00046197
  |                   3  -3      0.00274700
  |                   3  -2      0.00425975
  |                   3  -1     -0.00273340
  |                   3   0     -0.00210368
  |                   3   1     -0.00296744
  |                   3   2     -0.00191428
  |                   3   3      0.00254100
  |                   4  -4     -0.00155887
  |                   4  -3     -0.00126525
  |                   4  -2     -0.00585746
  |                   4  -1     -0.00122794
  |                   4   0      0.00387055
  |                   4   1      0.00954014
  |                   4   2      0.00782011
  |                   4   3      0.00620905
  |                   4   4     -0.00642733
  |                   5  -5     -0.00368161
  |                   5  -4      0.00062719
  |                   5  -3      0.01180978
  |                   5  -2     -0.01035689
  |                   5  -1      0.01330013
  |                   5   0     -0.00609683
  |                   5   1     -0.01209346
  |                   5   2     -0.01039318
  |                   5   3     -0.01843398
  |                   5   4      0.00403306
  |                   5   5      0.00362917
  |                   6  -6     -0.02584273
  |                   6  -5     -0.02318776
  |                   6  -4      0.02457258
  |                   6  -3     -0.00550793
  |                   6  -2      0.00494194
  |                   6  -1     -0.02574492
  |                   6   0     -0.00537016
  |                   6   1     -0.00187037
  |                   6   2      0.00647411
  |                   6   3      0.00410273
  |                   6   4     -0.02156562
  |                   6   5      0.02015421
  |                   6   6     -0.01992500
  |
  | Atom         2:   l   m          moment
  |                   0   0      0.01480498
  |                   1  -1      0.00433661
  |                   1   0      0.00816254
  |                   1   1      0.00354222
  |                   2  -2      0.00004529
  |                   2  -1      0.00071812
  |                   2   0     -0.00376114
  |                   2   1     -0.00369174
  |                   2   2      0.00074630
  |                   3  -3      0.00233019
  |                   3  -2      0.00205122
  |                   3  -1     -0.00115549
  |                   3   0     -0.00089055
  |                   3   1     -0.00482459
  |                   3   2      0.00115224
  |                   3   3      0.00418406
  |                   4  -4     -0.00077996
  |                   4  -3      0.00423396
  |                   4  -2     -0.00482807
  |                   4  -1      0.00862128
  |                   4   0      0.00143882
  |                   4   1      0.00661699
  |                   4   2      0.00205667
  |                   4   3      0.00111585
  |                   4   4      0.00188417
  |                   5  -5      0.00668779
  |                   5  -4      0.01200726
  |                   5  -3      0.01412515
  |                   5  -2     -0.00862653
  |                   5  -1      0.00475771
  |                   5   0     -0.01354223
  |                   5   1      0.00361921
  |                   5   2     -0.00389095
  |                   5   3     -0.02166768
  |                   5   4     -0.00946792
  |                   5   5      0.01506582
  |                   6  -6     -0.04047922
  |                   6  -5      0.00587635
  |                   6  -4      0.02118760
  |                   6  -3      0.00119105
  |                   6  -2      0.04634324
  |                   6  -1     -0.01043801
  |                   6   0     -0.00468796
  |                   6   1     -0.00052554
  |                   6   2     -0.01893134
  |                   6   3     -0.01208968
  |                   6   4     -0.04054773
  |                   6   5      0.03042827
  |                   6   6      0.01714951
  |
  | Atom         3:   l   m          moment
  |                   0   0      0.01315208
  |                   1  -1     -0.00461740
  |                   1   0     -0.00447361
  |                   1   1      0.00362735
  |                   2  -2     -0.00624720
  |                   2  -1     -0.00152546
  |                   2   0      0.00395552
  |                   2   1      0.00152952
  |                   2   2      0.00497829
  |                   3  -3      0.00278924
  |                   3  -2      0.00423614
  |                   3  -1     -0.00238040
  |                   3   0     -0.00409180
  |                   3   1     -0.00437401
  |                   3   2     -0.00331972
  |                   3   3      0.00708082
  |                   4  -4     -0.00988710
  |                   4  -3     -0.00121591
  |                   4  -2     -0.00526842
  |                   4  -1     -0.00053289
  |                   4   0      0.00427391
  |                   4   1      0.00504907
  |                   4   2      0.00271406
  |                   4   3      0.00571039
  |                   4   4      0.00099292
  |                   5  -5      0.02425682
  |                   5  -4      0.00980629
  |                   5  -3     -0.01939143
  |                   5  -2      0.00676111
  |                   5  -1     -0.00046588
  |                   5   0      0.00282137
  |                   5   1     -0.00348660
  |                   5   2     -0.01652697
  |                   5   3     -0.00765077
  |                   5   4      0.00911226
  |                   5   5      0.00566672
  |                   6  -6     -0.04746151
  |                   6  -5      0.01807414
  |                   6  -4      0.02048092
  |                   6  -3      0.04444889
  |                   6  -2     -0.03147103
  |                   6  -1      0.01453808
  |                   6   0     -0.04447172
  |                   6   1      0.01810195
  |                   6   2      0.05470258
[...]
  |   Hirshfeld dipole moment :      0.01253361
  |   Hirshfeld second moments:      0.05463883       0.00702850       0.01861898
  |                                  0.00702850       0.07576735       0.00901789
  |                                  0.01861898       0.00901789       0.09525228
  ----------------------------------------------------------------------
  | Atom     8: H
  |   Hirshfeld charge        :      0.12533737
  |   Free atom volume        :     10.31539447
  |   Hirshfeld volume        :      6.99274157
  |   Hirshfeld dipole vector :     -0.01116205      -0.04929036      -0.00286589
  |   Hirshfeld dipole moment :      0.05061960
  |   Hirshfeld second moments:      0.10236878      -0.01195242       0.00269409
  |                                 -0.01195242       0.05310175      -0.01884266
  |                                  0.00269409      -0.01884266       0.11816604
  ----------------------------------------------------------------------
  | Atom     9: H
  |   Hirshfeld charge        :      0.17901262
  |   Free atom volume        :     10.31539447
  |   Hirshfeld volume        :      5.30735864
  |   Hirshfeld dipole vector :      0.04454044       0.01185192       0.11941146
  |   Hirshfeld dipole moment :      0.12799772
  |   Hirshfeld second moments:      0.13264498       0.00222920       0.00098398
  |                                  0.00222920       0.14932792       0.00078593
  |                                  0.00098398       0.00078593       0.13237168
  ----------------------------------------------------------------------
  | Atom    10: O
  |   Hirshfeld charge        :     -0.28788643
  |   Free atom volume        :     23.74229847
  |   Hirshfeld volume        :     21.17584811
  |   Hirshfeld dipole vector :      0.02475177       0.02537908      -0.03917511
  |   Hirshfeld dipole moment :      0.05283405
  |   Hirshfeld second moments:      0.04269612      -0.02698110       0.01540121
  |                                 -0.02698110       0.05909287       0.01826456
  |                                  0.01540121       0.01826456       0.00439985
  ----------------------------------------------------------------------
  | Atom    11: H
  |   Hirshfeld charge        :      0.11284657
  |   Free atom volume        :     10.31539447
  |   Hirshfeld volume        :      7.49387185
  |   Hirshfeld dipole vector :     -0.00856449       0.05907196       0.00803644
  |   Hirshfeld dipole moment :      0.06022816
  |   Hirshfeld second moments:      0.10719159      -0.02066561       0.00460334
  |                                 -0.02066561       0.04053840       0.01331749
  |                                  0.00460334       0.01331749       0.09262742
  ----------------------------------------------------------------------
  | Atom    12: H
  |   Hirshfeld charge        :      0.11284836
  |   Free atom volume        :     10.31539447
  |   Hirshfeld volume        :      7.30734299
  |   Hirshfeld dipole vector :      0.05590848      -0.03484616      -0.00878282
  |   Hirshfeld dipole moment :      0.06646165
  |   Hirshfeld second moments:      0.04735980       0.01208285       0.01631320
  |                                  0.01208285       0.11104524      -0.00099986
  |                                  0.01631320      -0.00099986       0.09442195
  ----------------------------------------------------------------------
  | Atom    13: O
  |   Hirshfeld charge        :     -0.23695135
  |   Free atom volume        :     23.74229847
  |   Hirshfeld volume        :     19.87464059
  |   Hirshfeld dipole vector :      0.00510116       0.01490276      -0.00765019
  |   Hirshfeld dipole moment :      0.01751113
  |   Hirshfeld second moments:      0.05891240       0.00189275      -0.01531210
  |                                  0.00189275       0.07154882       0.01750767
  |                                 -0.01531210       0.01750767       0.09139793
  ----------------------------------------------------------------------
  | Atom    14: H
  |   Hirshfeld charge        :      0.11561282
  |   Free atom volume        :     10.31539447
  |   Hirshfeld volume        :      7.16288814
  |   Hirshfeld dipole vector :      0.02137322       0.03192328      -0.00115958
  |   Hirshfeld dipole moment :      0.03843507
  |   Hirshfeld second moments:      0.09472809      -0.02317452      -0.01122169
  |                                 -0.02317452       0.04948343      -0.01614856
  |                                 -0.01122169      -0.01614856       0.11329742
  ----------------------------------------------------------------------
  | Atom    15: H
  |   Hirshfeld charge        :      0.17926640
  |   Free atom volume        :     10.31539447
  |   Hirshfeld volume        :      5.35973043
  |   Hirshfeld dipole vector :      0.04619370      -0.04155711      -0.11228928
  |   Hirshfeld dipole moment :      0.12833446
  |   Hirshfeld second moments:      0.13574115       0.00603541       0.00011367
  |                                  0.00603541       0.14396437       0.00105685
  |                                  0.00011367       0.00105685       0.13214810
  ----------------------------------------------------------------------
  | Atom    16: O
  |   Hirshfeld charge        :     -0.27820636
  |   Free atom volume        :     23.74229847
  |   Hirshfeld volume        :     20.98446717
  |   Hirshfeld dipole vector :     -0.04665014      -0.00320649       0.01596145
  |   Hirshfeld dipole moment :      0.04940936
  |   Hirshfeld second moments:      0.00637322      -0.01726141       0.02251697
  |                                 -0.01726141       0.05221617      -0.00717975
  |                                  0.02251697      -0.00717975       0.06691485
  ----------------------------------------------------------------------
  | Atom    17: H
  |   Hirshfeld charge        :      0.11537895
  |   Free atom volume        :     10.31539447
  |   Hirshfeld volume        :      7.36167404
  |   Hirshfeld dipole vector :     -0.02876222       0.04138036      -0.02295747
  |   Hirshfeld dipole moment :      0.05537730
  |   Hirshfeld second moments:      0.05102817       0.02849416      -0.00826777
  |                                  0.02849416       0.08012610       0.01243898
  |                                 -0.00826777       0.01243898       0.11685574
  ----------------------------------------------------------------------
  | Atom    18: H
  |   Hirshfeld charge        :      0.11769552
  |   Free atom volume        :     10.31539447
  |   Hirshfeld volume        :      7.31029898
  |   Hirshfeld dipole vector :      0.00245292       0.00044473       0.06340445
  |   Hirshfeld dipole moment :      0.06345344
  |   Hirshfeld second moments:      0.09741198      -0.00854553       0.01614592
  |                                 -0.00854553       0.10884323       0.01526665
  |                                  0.01614592       0.01526665       0.04804261
  ----------------------------------------------------------------------
  | Atom    19: O
  |   Hirshfeld charge        :     -0.22983241
  |   Free atom volume        :     23.74229847
  |   Hirshfeld volume        :     19.74740084
  |   Hirshfeld dipole vector :     -0.00218751      -0.00410228      -0.01055044
  |   Hirshfeld dipole moment :      0.01152934
  |   Hirshfeld second moments:      0.05600722      -0.01523165       0.00076580
  |                                 -0.01523165       0.09922081      -0.01448440
  |                                  0.00076580      -0.01448440       0.07834766
  ----------------------------------------------------------------------
  | Atom    20: H
  |   Hirshfeld charge        :      0.12578225
  |   Free atom volume        :     10.31539447
  |   Hirshfeld volume        :      7.00630884
  |   Hirshfeld dipole vector :     -0.00161099       0.00689889      -0.04600841
  |   Hirshfeld dipole moment :      0.04655066
  |   Hirshfeld second moments:      0.10493379      -0.00748336       0.00905466
  |                                 -0.00748336       0.11861932       0.01688878
  |                                  0.00905466       0.01688878       0.04827630
  ----------------------------------------------------------------------
  | Atom    21: H
  |   Hirshfeld charge        :      0.18050054
  |   Free atom volume        :     10.31539447
  |   Hirshfeld volume        :      5.30731657
  |   Hirshfeld dipole vector :      0.04192932      -0.11881910       0.02272160
  |   Hirshfeld dipole moment :      0.12803249
  |   Hirshfeld second moments:      0.13393682      -0.00022192      -0.00164774
  |                                 -0.00022192       0.13327474      -0.00092480
  |                                 -0.00164774      -0.00092480       0.14829047
  ----------------------------------------------------------------------
  | Atom    22: O
  |   Hirshfeld charge        :     -0.28036928
  |   Free atom volume        :     23.74229847
  |   Hirshfeld volume        :     20.75879584
  |   Hirshfeld dipole vector :     -0.01107943       0.02246236       0.03128867
  |   Hirshfeld dipole moment :      0.04007857
  |   Hirshfeld second moments:      0.08621608       0.01197274       0.01056565
  |                                  0.01197274       0.00632103      -0.01953726
  |                                  0.01056565      -0.01953726       0.04110338
  ----------------------------------------------------------------------
  | Atom    23: H
  |   Hirshfeld charge        :      0.16234634
  |   Free atom volume        :     10.31539447
  |   Hirshfeld volume        :      5.73653336
  |   Hirshfeld dipole vector :     -0.12897777      -0.00382291       0.01278768
  |   Hirshfeld dipole moment :      0.12966651
  |   Hirshfeld second moments:      0.12572793       0.00354747       0.00690921
  |                                  0.00354747       0.11796271      -0.00540106
  |                                  0.00690921      -0.00540106       0.13662547
  ----------------------------------------------------------------------
  | Atom    24: H
  |   Hirshfeld charge        :      0.10840571
  |   Free atom volume        :     10.31539447
  |   Hirshfeld volume        :      7.32973481
  |   Hirshfeld dipole vector :      0.00836079      -0.00607425       0.04737585
  |   Hirshfeld dipole moment :      0.04848991
  |   Hirshfeld second moments:      0.10171917      -0.00228886      -0.03044158
  |                                 -0.00228886       0.09646522      -0.00231742
  |                                 -0.03044158      -0.00231742       0.04507150
  ----------------------------------------------------------------------
  | Atom    25: O
  |   Hirshfeld charge        :     -0.28729654
  |   Free atom volume        :     23.74229847
  |   Hirshfeld volume        :     21.09936970
  |   Hirshfeld dipole vector :      0.02848747      -0.03721360      -0.02150509
  |   Hirshfeld dipole moment :      0.05156411
  |   Hirshfeld second moments:      0.04294630       0.01684339       0.02634600
  |                                  0.01684339       0.01322905      -0.00433793
  |                                  0.02634600      -0.00433793       0.05432964
  ----------------------------------------------------------------------
  | Atom    26: H
  |   Hirshfeld charge        :      0.11118477
  |   Free atom volume        :     10.31539447
  |   Hirshfeld volume        :      7.57830662
  |   Hirshfeld dipole vector :     -0.00840203      -0.01617018      -0.05237183
  |   Hirshfeld dipole moment :      0.05545158
  |   Hirshfeld second moments:      0.10867146      -0.00571814       0.00682938
  |                                 -0.00571814       0.08332488      -0.01752811
  |                                  0.00682938      -0.01752811       0.04398400
  ----------------------------------------------------------------------
  | Atom    27: H
  |   Hirshfeld charge        :      0.11355558
  |   Free atom volume        :     10.31539447
  |   Hirshfeld volume        :      7.31505458
  |   Hirshfeld dipole vector :      0.05806100       0.00075939       0.02377252
  |   Hirshfeld dipole moment :      0.06274384
  |   Hirshfeld second moments:      0.04894117       0.01679095      -0.01420011
  |                                  0.01679095       0.09805883       0.00899709
  |                                 -0.01420011       0.00899709       0.10571070
  ----------------------------------------------------------------------


------------------------------------------------------------------------------
  Final output of selected total energy values:

  The following output summarizes some interesting total energy values
  at the end of a run (AFTER all relaxation, molecular dynamics, etc.).

  | Total energy of the DFT / Hartree-Fock s.c.f. calculation      :         -18731.546478721 eV
  | Final zero-broadening corrected energy (caution - metals only) :         -18731.546478721 eV
  | For reference only, the value of 1 Hartree used in FHI-aims is :             27.211384500 eV

  Before relying on these values, please be sure to understand exactly which
  total energy value is referred to by a given number. Different objects may
  all carry the same name 'total energy'. Definitions:

  Total energy of the DFT / Hartree-Fock s.c.f. calculation:
  | Note that this energy does not include ANY quantities calculated after the
  | s.c.f. cycle, in particular not ANY RPA, MP2, etc. many-body perturbation terms.

  Final zero-broadening corrected energy:
  | For metallic systems only, a broadening of the occupation numbers at the Fermi
  | level can be extrapolated back to zero broadening by an electron-gas inspired
  | formula. For all systems that are not real metals, this value can be
  | meaningless and should be avoided.

------------------------------------------------------------------------------
  Methods described in the following list of references were used in this FHI-aims run.
  If you publish the results, please make sure to cite these reference if they apply.
  FHI-aims is an academic code, and for our developers (often, Ph.D. students
  and postdocs), scientific credit in the community is essential.
  Thank you for helping us!

  For any use of FHI-aims, please cite:

    Volker Blum, Ralf Gehrke, Felix Hanke, Paula Havu, Ville Havu,
    Xinguo Ren, Karsten Reuter, and Matthias Scheffler
    'Ab initio molecular simulations with numeric atom-centered orbitals'
    Computer Physics Communications 180, 2175-2196 (2009)
    http://doi.org/10.1016/j.cpc.2009.06.022


  For Hartree-Fock, hybrid functionals, or many-body perturbation theory used in your run, please cite:

    Xinguo Ren, Patrick Rinke, Volker Blum, Juergen Wieferink, Alex Tkatchenko,
    Andrea Sanfilippo, Karsten Reuter, and Matthias Scheffler,
    'Resolution-of-identity approach to Hartree-Fock, hybrid density functionals,
    RPA, MP2, and GW with numeric atom-centered orbital basis functions'
    New Journal of Physics 14, 053020 (2012).
    http://doi.org/10.1088/1367-2630/14/5/053020


  The ELSI infrastructure was used in your run to solve the Kohn-Sham electronic structure.
  Please check out http://elsi-interchange.org to learn more.
  If scalability is important for your project, please acknowledge ELSI by citing:

    V. W-z. Yu, F. Corsetti, A. Garcia, W. P. Huhn, M. Jacquelin, W. Jia,
    B. Lange, L. Lin, J. Lu, W. Mi, A. Seifitokaldani, A. Vazquez-Mayagoitia,
    C. Yang, H. Yang, and V. Blum
    'ELSI: A unified software interface for Kohn-Sham electronic structure solvers'
    Computer Physics Communications 222, 267-285 (2018).
    http://doi.org/10.1016/j.cpc.2017.09.007


  For the real-space grid partitioning and parallelization used in this calculation, please cite:

    Ville Havu, Volker Blum, Paula Havu, and Matthias Scheffler,
    'Efficient O(N) integration for all-electron electronic structure calculation'
    'using numerically tabulated basis functions'
    Journal of Computational Physics 228, 8367-8379 (2009).
    http://doi.org/10.1016/j.jcp.2009.08.008


  The high-level electronic structure method used in your calculation
  employed our efficient localized resolution of identity for the Coulomb operator.
  Some calculations, especially large-scale hybrid density functional theory,
  are only possible thanks to this development. For this feature, please cite:

    Arvid Ihrig, Juergen Wieferink, Igor Ying Zhang, Matti Ropo, Xinguo Ren,
    Patrick Rinke, Matthias Scheffler, and Volker Blum,
    'Accurate localized resolution of identity approach for linear-scaling
    hybrid density functionals and for many-body perturbation theory'
    New Journal of Physics 117, 093020 (2015).
    http://doi.org/10.1088/1367-2630/17/9/093020

  Of course, there are many other important community references, e.g., those cited in the
  above references. Our list is limited to references that describe implementations in the
  FHI-aims code. The reason is purely practical (length of this list) - please credit others as well.

------------------------------------------------------------
          Leaving FHI-aims.
          Date     :  20240806, Time     :  201333.677

          Computational steps:
          | Number of self-consistency cycles          :           19
          | Number of SCF (re)initializations          :            1

          Detailed time accounting                     :  max(cpu_time)    wall_clock(cpu1)
          | Total time                                  :      197.159 s         197.167 s
          | Preparation time                            :        0.113 s           0.113 s
          | Boundary condition initalization            :        0.003 s           0.003 s
          | Grid partitioning                           :        0.258 s           0.258 s
          | Preloading free-atom quantities on grid     :        0.610 s           0.609 s
          | Free-atom superposition energy              :        0.088 s           0.089 s
          | Total time for integrations                 :       20.067 s          20.069 s
          | Product basis setup: Total time             :       38.649 s          38.651 s
          | Total time evaluating exchange matrix       :      110.425 s         110.427 s
          | Total time for solution of K.-S. equations  :        0.486 s           0.487 s
          | Total time for density & force components   :       17.103 s          17.103 s
          | Total time for mixing                       :        0.255 s           0.252 s
          | Total time for Hartree multipole update     :        0.212 s           0.215 s
          | Total time for Hartree multipole sum        :        7.231 s           7.231 s
          | Total time for total energy evaluation      :        0.001 s           0.001 s
          | Total time NSC force correction             :        1.372 s           1.372 s
          | Total time for scaled ZORA corrections      :        0.000 s           0.000 s

          Partial memory accounting:
          | Residual value for overall tracked memory usage across tasks:     0.000000 MB (should be 0.000000 MB)
          | Peak values for overall tracked memory usage:
          |   Minimum:      647.616 MB (on task 4 after allocating hessian_basis_wave)
          |   Maximum:      899.050 MB (on task 7 after allocating ovlp3fn2%n)
          |   Average:      739.848 MB
          | Largest tracked array allocation:
          |   Minimum:      150.113 MB (ovlp3fn2%dat on task 2)
          |   Maximum:      199.462 MB (ovlp3fn2%dat on task 3)
          |   Average:      168.732 MB
          Note:  These values currently only include a subset of arrays which are explicitly tracked.
          The "true" memory usage will be greater.

          Have a nice day.
------------------------------------------------------------
